/*--------------------------------*- C++ -*----------------------------------*\
| =========                 |                                                 |
| \\      /  F ield         | OpenFOAM: The Open Source CFD Toolbox           |
|  \\    /   O peration     | Version:  5.0                                   |
|   \\  /    A nd           | Web:      www.OpenFOAM.org                      |
|    \\/     M anipulation  |                                                 |
\*---------------------------------------------------------------------------*/
FoamFile
{
    version     2.0;
    format      ascii;
    class       volScalarField;
    location    "1";
    object      p;
}
// * * * * * * * * * * * * * * * * * * * * * * * * * * * * * * * * * * * * * //

dimensions      [0 2 -2 0 0 0 0];

internalField   nonuniform List<scalar> 
50
(
18.9917
16.9734
14.9583
12.9369
10.9283
8.86032
6.85418
4.92174
2.95122
1.0005
18.9917
16.9734
14.9583
12.937
10.929
8.9038
6.89868
4.92456
2.95147
0.975032
18.9917
16.9734
14.9582
12.9372
10.929
8.91137
6.9027
4.92443
2.95165
0.976796
18.9917
16.9734
14.9582
12.9374
10.9284
8.90568
6.89535
4.92335
2.95166
0.979829
18.9916
16.9734
14.9582
12.9373
10.928
8.90057
6.88997
4.92236
2.95144
0.979959
)
;

boundaryField
{
    top
    {
        type            zeroGradient;
    }
    bottom
    {
        type            symmetryPlane;
    }
    inlet
    {
        type            fixedValue;
        value           uniform 20;
    }
    outlet
    {
        type            fixedValue;
        value           uniform 0;
    }
    frontAndBack
    {
        type            empty;
    }
}


// ************************************************************************* //
