/*--------------------------------*- C++ -*----------------------------------*\
| =========                 |                                                 |
| \\      /  F ield         | OpenFOAM: The Open Source CFD Toolbox           |
|  \\    /   O peration     | Version:  5.0                                   |
|   \\  /    A nd           | Web:      www.OpenFOAM.org                      |
|    \\/     M anipulation  |                                                 |
\*---------------------------------------------------------------------------*/
FoamFile
{
    version     2.0;
    format      ascii;
    class       surfaceScalarField;
    location    "1";
    object      phi;
}
// * * * * * * * * * * * * * * * * * * * * * * * * * * * * * * * * * * * * * //

dimensions      [0 3 -1 0 0 0 0];

internalField   nonuniform List<scalar> 
760
(
1.8351e-14
2.25131e-17
1.83247e-14
2.62046e-17
1.83187e-14
6.08681e-18
1.83166e-14
2.11091e-18
1.83162e-14
2.95922e-19
1.83161e-14
1.00184e-19
1.83161e-14
1.78302e-20
1.83161e-14
2.15961e-20
1.83161e-14
-6.82294e-21
1.83161e-14
1.55623e-20
1.83161e-14
8.91269e-21
1.8316e-14
2.05332e-20
1.83161e-14
1.11644e-20
1.8316e-14
1.60668e-20
1.8316e-14
1.70159e-20
1.8316e-14
2.89918e-20
1.8316e-14
-1.0158e-20
1.8316e-14
5.26677e-21
1.8316e-14
1.04643e-20
-1.83641e-20
1.82391e-14
4.47773e-17
1.82138e-14
5.1565e-17
1.82081e-14
1.1758e-17
1.82059e-14
4.19701e-18
1.82057e-14
5.34003e-19
1.82055e-14
2.6902e-19
1.82056e-14
-5.36485e-20
1.82055e-14
3.18397e-20
1.82056e-14
-1.04426e-20
1.82055e-14
7.03744e-20
1.82055e-14
3.37957e-20
1.82055e-14
4.04503e-20
1.82055e-14
1.74035e-20
1.82055e-14
3.24843e-20
1.82055e-14
2.52571e-20
1.82055e-14
4.76255e-20
1.82055e-14
9.73167e-21
1.82055e-14
1.78681e-20
1.82055e-14
-7.46482e-21
-4.21177e-20
1.80164e-14
6.57169e-17
1.79926e-14
7.53706e-17
1.79873e-14
1.70182e-17
1.79854e-14
6.1691e-18
1.79852e-14
7.38098e-19
1.7985e-14
4.11547e-19
1.7985e-14
-1.22184e-19
1.7985e-14
8.39405e-20
1.7985e-14
-7.90993e-20
1.7985e-14
1.13535e-19
1.7985e-14
1.07493e-20
1.79849e-14
7.43367e-20
1.7985e-14
1.81697e-20
1.79849e-14
5.11037e-20
1.79849e-14
2.9417e-20
1.79849e-14
3.947e-20
1.79849e-14
-1.59068e-20
1.79849e-14
2.17188e-20
1.79849e-14
-1.95486e-20
-4.13473e-20
1.7684e-14
8.47763e-17
1.76624e-14
9.68717e-17
1.76578e-14
2.17017e-17
1.7656e-14
7.91988e-18
1.76559e-14
8.78057e-19
1.76557e-14
5.59573e-19
1.76558e-14
-1.92161e-19
1.76557e-14
1.17114e-19
1.76557e-14
-1.53811e-19
1.76557e-14
1.38117e-19
1.76557e-14
-2.814e-20
1.76557e-14
5.6857e-20
1.76557e-14
5.49092e-21
1.76557e-14
6.77182e-20
1.76556e-14
4.07331e-21
1.76556e-14
1.42775e-20
1.76556e-14
-7.64309e-21
1.76556e-14
4.79582e-20
1.76556e-14
-2.78134e-20
-1.0882e-20
1.72437e-14
1.01385e-16
1.72251e-14
1.15435e-16
1.72212e-14
2.55714e-17
1.72198e-14
9.38029e-18
1.72197e-14
9.54223e-19
1.72195e-14
6.52977e-19
1.72196e-14
-2.6835e-19
1.72195e-14
1.3932e-19
1.72195e-14
-1.81803e-19
1.72195e-14
1.60087e-19
1.72195e-14
1.08608e-21
1.72195e-14
7.64436e-20
1.72195e-14
-3.5691e-20
1.72195e-14
7.23059e-20
1.72195e-14
-3.3073e-20
1.72194e-14
2.87785e-20
1.72194e-14
2.38111e-20
1.72194e-14
1.66277e-20
1.72194e-14
-3.17957e-20
-2.67954e-20
1.66981e-14
1.15021e-16
1.66831e-14
1.3046e-16
1.66802e-14
2.85582e-17
1.6679e-14
1.05105e-17
1.66789e-14
1.058e-18
1.66788e-14
7.8069e-19
1.66789e-14
-2.83982e-19
1.66788e-14
2.01735e-19
1.66789e-14
-2.13427e-19
1.66788e-14
1.67033e-19
1.66788e-14
2.26506e-20
1.66788e-14
1.23987e-19
1.66788e-14
4.85187e-21
1.66788e-14
7.30686e-20
1.66788e-14
-3.23515e-20
1.66787e-14
3.83558e-20
1.66788e-14
8.62966e-21
1.66787e-14
1.14339e-20
1.66787e-14
-9.0067e-22
-1.15381e-20
1.60505e-14
1.25259e-16
1.60395e-14
1.41465e-16
1.60375e-14
3.05259e-17
1.60368e-14
1.12751e-17
1.60367e-14
1.01916e-18
1.60366e-14
9.02182e-19
1.60367e-14
-2.95681e-19
1.60367e-14
2.45981e-19
1.60367e-14
-2.71695e-19
1.60366e-14
1.83372e-19
1.60366e-14
-1.87868e-20
1.60366e-14
1.29998e-19
1.60366e-14
-6.25185e-21
1.60366e-14
6.80571e-20
1.60366e-14
-2.42699e-20
1.60366e-14
7.70213e-21
1.60366e-14
-2.31131e-21
1.60366e-14
3.92609e-20
1.60366e-14
-2.21724e-20
-1.67216e-20
1.53045e-14
1.31804e-16
1.52978e-14
1.48103e-16
1.5297e-14
3.1363e-17
1.52966e-14
1.16784e-17
1.52966e-14
9.6351e-19
1.52965e-14
9.31622e-19
1.52966e-14
-3.31829e-19
1.52966e-14
2.93283e-19
1.52966e-14
-2.43569e-19
1.52965e-14
1.87994e-19
1.52965e-14
-3.0304e-20
1.52965e-14
1.47724e-19
1.52965e-14
-5.22868e-20
1.52965e-14
6.76138e-20
1.52965e-14
1.26833e-21
1.52965e-14
5.26826e-20
1.52965e-14
-2.28345e-20
1.52965e-14
3.32554e-20
1.52965e-14
-4.80557e-20
-3.28265e-20
1.44644e-14
1.34368e-16
1.44624e-14
1.50107e-16
1.44626e-14
3.11431e-17
1.44626e-14
1.16509e-17
1.44627e-14
8.44669e-19
1.44626e-14
1.00883e-18
1.44627e-14
-3.31217e-19
1.44627e-14
3.16021e-19
1.44627e-14
-2.56202e-19
1.44627e-14
1.98813e-19
1.44626e-14
-5.99441e-21
1.44626e-14
1.68571e-19
1.44626e-14
-3.17134e-20
1.44626e-14
6.1193e-20
1.44626e-14
-4.32025e-21
1.44626e-14
4.12007e-20
1.44626e-14
-2.30923e-20
1.44626e-14
1.82749e-20
1.44626e-14
-6.64579e-20
-2.57352e-20
1.35352e-14
1.32947e-16
1.35378e-14
1.47452e-16
1.35391e-14
2.98549e-17
1.35395e-14
1.12807e-17
1.35396e-14
7.1485e-19
1.35396e-14
1.0066e-18
1.35397e-14
-3.74819e-19
1.35396e-14
3.0442e-19
1.35396e-14
-2.78068e-19
1.35396e-14
2.09416e-19
1.35396e-14
-1.27232e-20
1.35396e-14
1.76473e-19
1.35396e-14
-2.76801e-20
1.35396e-14
8.76364e-20
1.35396e-14
-5.7676e-22
1.35395e-14
1.24404e-20
1.35396e-14
-1.59201e-20
1.35395e-14
3.00857e-20
1.35395e-14
-2.20644e-20
1.44523e-20
1.25222e-14
1.27472e-16
1.25294e-14
1.40235e-16
1.25317e-14
2.76025e-17
1.25324e-14
1.05942e-17
1.25326e-14
5.42108e-19
1.25325e-14
9.82166e-19
1.25326e-14
-3.90999e-19
1.25325e-14
3.34432e-19
1.25326e-14
-2.77412e-19
1.25325e-14
2.40215e-19
1.25325e-14
-3.36113e-20
1.25325e-14
1.44811e-19
1.25325e-14
-1.06522e-20
1.25325e-14
9.96e-20
1.25325e-14
-3.37615e-21
1.25325e-14
-2.28839e-21
1.25325e-14
-1.10595e-20
1.25325e-14
3.80653e-20
1.25325e-14
7.40945e-21
4.03692e-20
1.14312e-14
1.18151e-16
1.14427e-14
1.28749e-16
1.14458e-14
2.4535e-17
1.14468e-14
9.58376e-18
1.1447e-14
3.3617e-19
1.1447e-14
9.75349e-19
1.14471e-14
-4.34337e-19
1.1447e-14
3.64142e-19
1.14471e-14
-2.80424e-19
1.1447e-14
2.38769e-19
1.1447e-14
-1.06574e-20
1.1447e-14
1.90582e-19
1.1447e-14
-3.09316e-20
1.1447e-14
1.07156e-19
1.1447e-14
-7.08162e-21
1.1447e-14
2.1772e-20
1.1447e-14
2.87192e-20
1.1447e-14
5.1953e-20
1.1447e-14
-2.08033e-20
1.64431e-20
1.02687e-14
1.05401e-16
1.02839e-14
1.13543e-16
1.02877e-14
2.08019e-17
1.02889e-14
8.34387e-18
1.02891e-14
9.75332e-20
1.02891e-14
8.80215e-19
1.02892e-14
-4.40371e-19
1.02892e-14
3.95217e-19
1.02892e-14
-2.9358e-19
1.02891e-14
1.78585e-19
1.02891e-14
-4.85869e-20
1.02891e-14
1.63652e-19
1.02891e-14
-4.16136e-20
1.02891e-14
1.10167e-19
1.02891e-14
-3.65833e-20
1.02891e-14
2.54048e-20
1.02891e-14
-1.57391e-20
1.02891e-14
1.63902e-20
1.02891e-14
-3.24551e-20
1.809e-20
9.04132e-15
8.9792e-17
9.05953e-15
9.53024e-17
9.06367e-15
1.66286e-17
9.06508e-15
6.93923e-18
9.06527e-15
-1.05545e-19
9.06531e-15
8.17225e-19
9.06532e-15
-4.26614e-19
9.06532e-15
3.54464e-19
9.06531e-15
-3.26543e-19
9.06529e-15
1.99908e-19
9.06528e-15
-2.30066e-20
9.06528e-15
1.58034e-19
9.06529e-15
-4.83642e-20
9.06528e-15
9.48636e-20
9.06527e-15
-1.41794e-20
9.06527e-15
5.14485e-21
9.06527e-15
-5.72172e-20
9.06527e-15
-7.96277e-21
9.06527e-15
-5.54866e-20
7.97401e-21
7.75618e-15
7.21379e-17
7.77636e-15
7.51304e-17
7.78064e-15
1.24071e-17
7.78212e-15
5.4608e-18
7.78228e-15
-2.89423e-19
7.78234e-15
7.33933e-19
7.78233e-15
-3.91144e-19
7.78234e-15
3.49451e-19
7.78232e-15
-2.64254e-19
7.78231e-15
1.89993e-19
7.7823e-15
-3.02112e-20
7.7823e-15
1.42388e-19
7.78231e-15
-2.91886e-20
7.78231e-15
9.66143e-20
7.7823e-15
-2.01855e-20
7.78229e-15
1.273e-20
7.7823e-15
-7.81593e-21
7.78229e-15
1.99935e-20
7.7823e-15
-4.43381e-20
1.58342e-20
6.42075e-15
5.34336e-17
6.44161e-15
5.42553e-17
6.44571e-15
8.3036e-18
6.44718e-15
3.9561e-18
6.44728e-15
-3.7391e-19
6.44736e-15
6.28268e-19
6.44733e-15
-3.74434e-19
6.44736e-15
3.03765e-19
6.44733e-15
-2.40357e-19
6.44733e-15
1.74642e-19
6.44732e-15
-3.99501e-20
6.44732e-15
1.30592e-19
6.44733e-15
-2.94958e-20
6.44733e-15
7.92277e-20
6.44732e-15
-3.00867e-20
6.44732e-15
-9.55431e-21
6.44732e-15
-2.9804e-20
6.44732e-15
-1.49309e-20
6.44732e-15
-4.63658e-20
2.75342e-20
5.04276e-15
3.49918e-17
5.06273e-15
3.42711e-17
5.06632e-15
4.68818e-18
5.06769e-15
2.58403e-18
5.06772e-15
-4.20312e-19
5.06782e-15
4.75129e-19
5.06777e-15
-2.9638e-19
5.06781e-15
2.96949e-19
5.06777e-15
-1.90479e-19
5.06779e-15
1.60562e-19
5.06777e-15
-4.7501e-20
5.06778e-15
8.147e-20
5.06778e-15
-2.34592e-20
5.06779e-15
4.70259e-20
5.06778e-15
-3.30146e-20
5.06778e-15
-2.50976e-20
5.06778e-15
-3.96044e-20
5.06778e-15
1.09722e-20
5.06778e-15
-5.21601e-20
-1.36749e-21
3.6302e-15
1.84901e-17
3.64739e-15
1.70826e-17
3.65015e-15
1.98991e-18
3.65133e-15
1.42899e-18
3.65127e-15
-3.41562e-19
3.65141e-15
3.34361e-19
3.65132e-15
-2.11379e-19
3.65139e-15
2.27346e-19
3.65133e-15
-1.2351e-19
3.65136e-15
1.02524e-19
3.65133e-15
-4.56968e-20
3.65135e-15
3.99665e-20
3.65135e-15
-3.65237e-20
3.65136e-15
7.19717e-20
3.65135e-15
-2.78779e-20
3.65135e-15
-1.20401e-20
3.65136e-15
-1.24674e-20
3.65136e-15
3.63882e-20
3.65136e-15
-1.97626e-20
-7.44851e-21
2.19126e-15
5.8384e-18
2.20348e-15
4.88395e-18
2.20508e-15
3.84688e-19
2.20601e-15
5.02437e-19
2.20583e-15
-1.67161e-19
2.20601e-15
1.54467e-19
2.20589e-15
-8.16694e-20
2.20598e-15
7.07469e-20
2.20591e-15
-6.5028e-20
2.20595e-15
2.50984e-20
2.20592e-15
-2.64154e-20
2.20594e-15
1.48191e-20
2.20593e-15
8.58121e-21
2.20595e-15
7.96515e-21
2.20593e-15
-1.37129e-20
2.20594e-15
1.20308e-20
2.20594e-15
-7.97826e-21
2.20594e-15
-7.34819e-21
2.20594e-15
-7.17387e-21
-2.50821e-21
7.33948e-16
7.38815e-16
7.39195e-16
7.39669e-16
7.3949e-16
7.39628e-16
7.39532e-16
7.39607e-16
7.39549e-16
7.39585e-16
7.39556e-16
7.39576e-16
7.39568e-16
7.39582e-16
7.39569e-16
7.39575e-16
7.39572e-16
7.39576e-16
7.39574e-16
)
;

boundaryField
{
    top
    {
        type            calculated;
        value           uniform 0;
    }
    bottom
    {
        type            symmetryPlane;
        value           uniform 0;
    }
    inlet
    {
        type            calculated;
        value           nonuniform List<scalar> 
20
(
-1.83735e-14
-1.82614e-14
-1.80374e-14
-1.7703e-14
-1.72603e-14
-1.67118e-14
-1.60607e-14
-1.5311e-14
-1.4467e-14
-1.35337e-14
-1.25167e-14
-1.14219e-14
-1.0256e-14
-9.02571e-15
-7.73851e-15
-6.40206e-15
-5.02436e-15
-3.61371e-15
-2.17862e-15
-7.28118e-16
)
;
    }
    outlet
    {
        type            calculated;
        value           nonuniform List<scalar> 
20
(
1.8316e-14
1.82054e-14
1.79849e-14
1.76556e-14
1.72194e-14
1.66787e-14
1.60366e-14
1.52965e-14
1.44626e-14
1.35395e-14
1.25325e-14
1.1447e-14
1.02891e-14
9.06526e-15
7.78229e-15
6.44732e-15
5.06778e-15
3.65135e-15
2.20594e-15
7.3957e-16
)
;
    }
    frontAndBack
    {
        type            empty;
        value           nonuniform 0();
    }
}


// ************************************************************************* //
