/*--------------------------------*- C++ -*----------------------------------*\
| =========                 |                                                 |
| \\      /  F ield         | OpenFOAM: The Open Source CFD Toolbox           |
|  \\    /   O peration     | Version:  5.0                                   |
|   \\  /    A nd           | Web:      www.OpenFOAM.org                      |
|    \\/     M anipulation  |                                                 |
\*---------------------------------------------------------------------------*/
FoamFile
{
    version     2.0;
    format      ascii;
    class       volVectorField;
    location    "1";
    object      U;
}
// * * * * * * * * * * * * * * * * * * * * * * * * * * * * * * * * * * * * * //

dimensions      [0 1 -1 0 0 0 0];

internalField   nonuniform List<vector> 
50
(
(1.00857 6.05001e-07 9.73428e-28)
(1.00848 -1.41148e-06 -3.2596e-23)
(1.00876 8.75839e-07 -3.263e-23)
(1.00814 -2.07879e-05 -3.2566e-23)
(1.01019 -6.76224e-05 -4.75427e-25)
(1.00738 -0.000999381 6.64653e-23)
(1.06017 0.00117023 8.36011e-23)
(1.06249 -0.000127803 -4.062e-23)
(1.06397 2.07299e-05 -4.62035e-25)
(1.06562 -0.00506586 2.01636e-23)
(0.927881 2.02556e-06 -7.17375e-37)
(0.927796 -4.59083e-06 2.82248e-23)
(0.928058 4.31215e-06 4.08032e-27)
(0.927463 -5.78734e-05 -2.84379e-23)
(0.928834 -0.000140159 -2.82116e-23)
(0.926307 -0.00420674 1.64414e-23)
(0.908366 -0.00536528 5.31311e-23)
(0.906434 -0.000752768 7.21045e-23)
(0.906758 -0.000125603 -4.69732e-25)
(0.906391 0.000741985 -9.56695e-23)
(0.766511 3.20119e-06 -2.76042e-23)
(0.766439 -7.01221e-06 -7.30677e-26)
(0.766658 9.1435e-06 2.82326e-23)
(0.766138 -6.77941e-05 -5.63687e-23)
(0.766956 -6.59208e-05 -5.63203e-23)
(0.764951 -0.00252138 2.65177e-23)
(0.751834 -0.00292381 3.07965e-23)
(0.749102 -0.00045942 2.97411e-23)
(0.749118 -0.000106566 1.6039e-25)
(0.748366 4.70444e-05 -3.19462e-23)
(0.524456 2.92376e-06 5.5296e-23)
(0.524403 -6.21515e-06 2.81425e-23)
(0.524559 9.64084e-06 -5.64635e-23)
(0.524182 -4.59983e-05 -2.79449e-23)
(0.524659 8.18039e-06 5.72585e-23)
(0.523363 -0.000774429 6.58587e-23)
(0.514997 -0.000899897 3.89889e-23)
(0.512614 -0.000159697 1.81029e-24)
(0.512549 -5.36614e-05 -2.75844e-23)
(0.511879 -0.000159734 -2.79954e-24)
(0.201714 1.09086e-06 3.97193e-23)
(0.201692 -2.2863e-06 2.01063e-23)
(0.201758 3.75818e-06 -6.03578e-23)
(0.2016 -1.46986e-05 -2.00913e-23)
(0.20179 1.01563e-05 4.02453e-23)
(0.201339 -0.000142915 3.81382e-23)
(0.198215 -0.000177966 1.98308e-23)
(0.197143 -3.29752e-05 -4.1403e-25)
(0.197129 -1.37738e-05 0)
(0.196814 -5.55138e-05 0)
)
;

boundaryField
{
    top
    {
        type            fixedValue;
        value           uniform (0 0 0);
    }
    bottom
    {
        type            symmetryPlane;
    }
    inlet
    {
        type            pressureInletVelocity;
        value           nonuniform List<vector> 5((1.00856 0 0) (0.927873 0 0) (0.766503 0 0) (0.524448 0 0) (0.201709 0 0));
    }
    outlet
    {
        type            inletOutlet;
        inletValue      uniform (1 0 0);
        value           nonuniform List<vector> 5((1.06562 -0.00506586 2.01636e-23) (0.906391 0.000741985 -9.56695e-23) (0.748366 4.70444e-05 -3.19462e-23) (0.511879 -0.000159734 -2.79954e-24) (0.196814 -5.55138e-05 0));
    }
    frontAndBack
    {
        type            empty;
    }
}


// ************************************************************************* //
