/*--------------------------------*- C++ -*----------------------------------*\
| =========                 |                                                 |
| \\      /  F ield         | OpenFOAM: The Open Source CFD Toolbox           |
|  \\    /   O peration     | Version:  5.0                                   |
|   \\  /    A nd           | Web:      www.OpenFOAM.org                      |
|    \\/     M anipulation  |                                                 |
\*---------------------------------------------------------------------------*/
FoamFile
{
    version     2.0;
    format      ascii;
    class       volScalarField;
    location    "1.5";
    object      shearRate;
}
// * * * * * * * * * * * * * * * * * * * * * * * * * * * * * * * * * * * * * //

dimensions      [0 0 -1 0 0 0 0];

internalField   nonuniform List<scalar> 
50
(
1.96853e-16
2.46806e-14
2.91783e-14
2.20685e-14
4.49159e-14
2.173e-14
2.43263e-14
2.60008e-14
9.12072e-15
7.92545e-15
2.33448e-14
2.42844e-14
1.16421e-14
2.43148e-14
2.1856e-14
2.43647e-14
2.38045e-14
4.39737e-14
2.56548e-14
2.2483e-14
6.9795e-15
5.62593e-15
9.17375e-15
4.40585e-14
2.18457e-14
3.06224e-15
6.27998e-15
4.56704e-14
2.30156e-14
2.20872e-14
1.30121e-13
8.68522e-14
6.74916e-14
6.55717e-14
1.0851e-13
6.48238e-15
4.41564e-14
2.60028e-14
2.26018e-14
2.24689e-14
6.51796e-14
4.3722e-14
4.44497e-14
2.30801e-14
6.53406e-14
1.52118e-13
1.51896e-13
1.73649e-13
1.30585e-13
2.16996e-13
)
;

boundaryField
{
    top
    {
        type            zeroGradient;
    }
    bottom
    {
        type            symmetryPlane;
    }
    inlet
    {
        type            zeroGradient;
    }
    outlet
    {
        type            zeroGradient;
    }
    frontAndBack
    {
        type            empty;
    }
    procBoundary1to0
    {
        type            processor;
        value           nonuniform List<scalar> 10(2.30019e-14 2.23609e-14 7.11892e-15 2.25117e-14 8.3518e-15 8.77898e-15 4.42475e-14 9.77998e-15 4.37415e-14 8.70153e-14);
    }
}


// ************************************************************************* //
