/*--------------------------------*- C++ -*----------------------------------*\
| =========                 |                                                 |
| \\      /  F ield         | OpenFOAM: The Open Source CFD Toolbox           |
|  \\    /   O peration     | Version:  5.0                                   |
|   \\  /    A nd           | Web:      www.OpenFOAM.org                      |
|    \\/     M anipulation  |                                                 |
\*---------------------------------------------------------------------------*/
FoamFile
{
    version     2.0;
    format      ascii;
    class       volVectorField;
    location    "1.5";
    object      U;
}
// * * * * * * * * * * * * * * * * * * * * * * * * * * * * * * * * * * * * * //

dimensions      [0 1 -1 0 0 0 0];

internalField   nonuniform List<vector> 
25
(
(1 1.00087e-09 6.46481e-23)
(1 -2.82652e-09 3.23241e-23)
(1 -2.36848e-09 -3.2324e-23)
(1 -1.39857e-09 2.90356e-29)
(1 1.59367e-09 3.26279e-23)
(0.92 -1.90742e-10 -2.79795e-23)
(0.92 -5.86331e-09 6.22484e-29)
(0.92 -5.7316e-09 5.59589e-23)
(0.92 -6.13721e-09 3.26234e-29)
(0.92 -5.36032e-11 -5.64504e-23)
(0.76 -9.96228e-09 2.79794e-23)
(0.76 -5.21486e-09 2.79794e-23)
(0.76 -1.00004e-08 2.79793e-23)
(0.76 -2.38336e-08 1.62366e-28)
(0.76 -1.29755e-08 -2.82621e-23)
(0.52 -1.80734e-08 5.59586e-23)
(0.52 -4.72014e-09 2.79794e-23)
(0.52 -1.43627e-08 -1.77912e-28)
(0.52 -4.01197e-08 -2.79794e-23)
(0.52 -2.2996e-08 -2.5944e-28)
(0.2 -7.24933e-09 3.98788e-23)
(0.2 -1.02805e-09 1.99394e-23)
(0.2 -4.85633e-09 5.16383e-29)
(0.2 -1.51278e-08 0)
(0.2 -8.7503e-09 0)
)
;

boundaryField
{
    top
    {
        type            fixedValue;
        value           uniform (0 0 0);
    }
    bottom
    {
        type            symmetryPlane;
    }
    inlet
    {
        type            pressureInletVelocity;
        value           nonuniform 0();
    }
    outlet
    {
        type            inletOutlet;
        inletValue      uniform (1 0 0);
        value           nonuniform List<vector> 5((1 1.59367e-09 3.26279e-23) (0.92 -5.36032e-11 -5.64504e-23) (0.76 -1.29755e-08 -2.82621e-23) (0.52 -2.2996e-08 -2.5944e-28) (0.2 -8.7503e-09 0));
    }
    frontAndBack
    {
        type            empty;
    }
    procBoundary1to0
    {
        type            processor;
        value           nonuniform List<vector> 5((1 -2.49033e-10 -6.49225e-30) (0.92 -1.81624e-11 -2.79794e-23) (0.76 1.77921e-09 -5.59589e-23) (0.52 3.03076e-09 5.59589e-23) (0.2 1.10111e-09 3.98787e-23));
    }
}


// ************************************************************************* //
