/*--------------------------------*- C++ -*----------------------------------*\
| =========                 |                                                 |
| \\      /  F ield         | OpenFOAM: The Open Source CFD Toolbox           |
|  \\    /   O peration     | Version:  5.0                                   |
|   \\  /    A nd           | Web:      www.OpenFOAM.org                      |
|    \\/     M anipulation  |                                                 |
\*---------------------------------------------------------------------------*/
FoamFile
{
    version     2.0;
    format      ascii;
    class       volScalarField;
    location    "1.8";
    object      shearRate;
}
// * * * * * * * * * * * * * * * * * * * * * * * * * * * * * * * * * * * * * //

dimensions      [0 0 -1 0 0 0 0];

internalField   nonuniform List<scalar> 
50
(
7.49602e-15
8.8818e-15
2.6237e-14
8.39728e-15
2.32255e-14
2.20958e-14
2.17357e-14
2.51e-14
7.47404e-15
2.41374e-14
6.23003e-15
4.35396e-14
1.25451e-14
2.28738e-14
2.69118e-14
2.2945e-14
6.54788e-14
1.02205e-14
7.11141e-15
2.36997e-14
2.18101e-14
6.5872e-14
2.41805e-14
1.01951e-14
2.18453e-14
4.99878e-15
2.27308e-14
1.17794e-14
2.28716e-14
3.4419e-15
5.93968e-15
1.57528e-15
1.27001e-14
2.24766e-14
2.24583e-14
2.17237e-14
2.08166e-15
2.84057e-14
2.44531e-14
8.54989e-15
2.29036e-14
7.80706e-15
2.27855e-14
1.05734e-14
4.45172e-14
5.2177e-15
2.19671e-14
4.59013e-14
6.65851e-14
1.09298e-13
)
;

boundaryField
{
    top
    {
        type            zeroGradient;
    }
    bottom
    {
        type            symmetryPlane;
    }
    inlet
    {
        type            zeroGradient;
    }
    outlet
    {
        type            zeroGradient;
    }
    frontAndBack
    {
        type            empty;
    }
    procBoundary0to1
    {
        type            processor;
        value           nonuniform List<scalar> 10(1.94278e-14 2.49088e-14 2.51569e-14 8.92601e-15 4.49114e-14 4.47231e-14 8.74192e-14 1.44329e-14 4.59066e-14 1.30354e-13);
    }
}


// ************************************************************************* //
