/*--------------------------------*- C++ -*----------------------------------*\
| =========                 |                                                 |
| \\      /  F ield         | OpenFOAM: The Open Source CFD Toolbox           |
|  \\    /   O peration     | Version:  5.0                                   |
|   \\  /    A nd           | Web:      www.OpenFOAM.org                      |
|    \\/     M anipulation  |                                                 |
\*---------------------------------------------------------------------------*/
FoamFile
{
    version     2.0;
    format      ascii;
    class       volVectorField;
    location    "1.8";
    object      U;
}
// * * * * * * * * * * * * * * * * * * * * * * * * * * * * * * * * * * * * * //

dimensions      [0 1 -1 0 0 0 0];

internalField   nonuniform List<vector> 
50
(
(1.00749 -9.80909e-18 -2.10718e-51)
(1.00749 -1.23325e-17 -1.66004e-37)
(1.00749 7.55125e-18 2.67402e-36)
(1.00749 -2.4514e-18 -3.19072e-37)
(1.00749 -3.49662e-17 -1.43726e-36)
(1.00749 1.02998e-16 -8.01189e-51)
(1.00749 3.83861e-17 1.43536e-37)
(1.00749 9.01024e-18 3.63383e-36)
(1.00749 -3.32632e-17 1.55346e-36)
(1.00749 -7.94779e-17 -9.99303e-38)
(1.00749 1.81976e-16 -3.84879e-38)
(1.00749 6.49102e-17 -3.96837e-50)
(1.00749 -1.34946e-16 1.7079e-37)
(1.00749 3.0397e-17 -5.19638e-37)
(1.00749 -5.90036e-17 -1.92593e-37)
(1.00749 1.96035e-16 -3.53607e-36)
(1.00749 7.96432e-17 1.39902e-37)
(1.00749 -1.18086e-16 -3.48848e-37)
(1.00749 3.03252e-17 -1.11595e-35)
(1.00749 6.50104e-17 -3.45577e-36)
(1.00749 4.24875e-17 -7.14431e-36)
(1.00749 1.28019e-16 1.39902e-37)
(1.00749 -6.40033e-17 -5.28722e-37)
(1.00749 2.05957e-17 1.06453e-35)
(1.00749 2.5643e-17 -5.27632e-36)
(1.00749 -3.3933e-17 -7.69757e-38)
(1.00749 1.69332e-16 -1.45353e-37)
(1.00749 -1.17404e-16 -1.45717e-36)
(1.00749 1.58292e-17 5.45075e-36)
(1.00749 2.24284e-17 -8.17612e-38)
(1.00749 1.67978e-17 -6.50966e-51)
(1.00749 2.14332e-16 1.81692e-36)
(1.00749 -1.75485e-16 1.00859e-53)
(1.00749 -8.17573e-17 -3.63383e-36)
(1.00749 3.21137e-17 7.26766e-36)
(1.00749 -5.96003e-18 -3.65033e-36)
(1.00749 3.34996e-16 3.33586e-36)
(1.00749 -2.38478e-16 -1.79875e-37)
(1.00749 -4.4639e-17 3.63383e-36)
(1.00749 9.96889e-17 2.34382e-37)
(1.00749 2.92862e-17 1.80412e-36)
(1.00749 3.79159e-16 -3.78463e-36)
(1.00749 -2.40038e-16 1.79875e-37)
(1.00749 -8.7243e-17 1.81692e-36)
(1.00749 1.90428e-16 3.63383e-36)
(1.00749 7.26459e-17 -8.59711e-38)
(1.00749 3.30262e-16 -2.58166e-36)
(1.00749 -2.08896e-16 3.37038e-37)
(1.00749 -5.80887e-17 -4.5053e-37)
(1.00749 2.15033e-16 2.29277e-36)
)
;

boundaryField
{
    top
    {
        type            zeroGradient;
    }
    bottom
    {
        type            symmetryPlane;
    }
    inlet
    {
        type            pressureInletVelocity;
        value           nonuniform List<vector> 10((1.00749 -0 -0) (1.00749 -0 -0) (1.00749 -0 -0) (1.00749 -0 -0) (1.00749 -0 -0) (1.00749 -0 -0) (1.00749 -0 -0) (1.00749 -0 -0) (1.00749 -0 -0) (1.00749 -0 -0));
    }
    outlet
    {
        type            inletOutlet;
        inletValue      nonuniform 0();
        value           nonuniform 0();
    }
    frontAndBack
    {
        type            empty;
    }
    procBoundary0to1
    {
        type            processor;
        value           nonuniform List<vector> 10((1.00749 -8.05189e-17 -5.04479e-37) (1.00749 -1.78753e-16 3.84459e-36) (1.00749 -2.68976e-16 -5.65606e-36) (1.00749 -3.05616e-16 -4.03355e-36) (1.00749 -2.94038e-16 -3.92454e-37) (1.00749 -3.64535e-16 -6.38186e-49) (1.00749 -4.11879e-16 -1.63159e-36) (1.00749 -4.4305e-16 -7.26766e-36) (1.00749 -3.62715e-16 2.07063e-49) (1.00749 -3.09184e-16 -2.61949e-36));
    }
}


// ************************************************************************* //
