/*--------------------------------*- C++ -*----------------------------------*\
| =========                 |                                                 |
| \\      /  F ield         | OpenFOAM: The Open Source CFD Toolbox           |
|  \\    /   O peration     | Version:  5.0                                   |
|   \\  /    A nd           | Web:      www.OpenFOAM.org                      |
|    \\/     M anipulation  |                                                 |
\*---------------------------------------------------------------------------*/
FoamFile
{
    version     2.0;
    format      ascii;
    class       surfaceScalarField;
    location    "5";
    object      phi;
}
// * * * * * * * * * * * * * * * * * * * * * * * * * * * * * * * * * * * * * //

dimensions      [0 3 -1 0 0 0 0];

internalField   nonuniform List<scalar> 
19660
(
4.0559e-09
-7.91323e-09
-1.82303e-08
8.37274e-09
-4.68276e-09
3.64977e-10
8.77455e-09
-2.83666e-09
2.4393e-09
7.98034e-09
-1.92713e-09
2.72618e-09
6.39629e-09
-1.02333e-09
2.61058e-09
4.64595e-09
-4.77254e-10
2.2278e-09
3.12203e-09
-2.4583e-10
1.76657e-09
1.96563e-09
-1.7722e-10
1.32773e-09
1.16017e-09
-1.50198e-10
9.48216e-10
6.38063e-10
-1.32682e-10
6.46776e-10
3.20975e-10
-1.17598e-10
4.26706e-10
1.3548e-10
-1.04527e-10
2.8252e-10
2.59841e-11
-9.07012e-11
1.91487e-10
-8.25326e-11
1.04073e-10
1.34016e-08
-2.88986e-09
-1.84506e-08
1.36386e-08
-3.98921e-09
-9.10804e-10
1.40458e-08
-2.99952e-09
-2.12518e-10
1.34055e-08
-2.27026e-09
1.014e-09
1.20024e-08
-1.58226e-09
1.98579e-09
1.01694e-08
-1.02958e-09
2.40034e-09
8.06315e-09
-6.7269e-10
2.53824e-09
5.8823e-09
-4.92614e-10
2.49179e-09
3.88057e-09
-4.20839e-10
2.25978e-09
2.29668e-09
-3.97894e-10
1.83073e-09
1.20878e-09
-3.77328e-10
1.32625e-09
5.29562e-10
-3.46685e-10
8.97988e-10
1.07273e-10
-3.04539e-10
6.11123e-10
-1.99784e-10
2.17566e-10
1.54814e-08
-1.08497e-09
-1.73216e-08
1.46925e-08
-2.17593e-09
-1.01066e-09
1.49423e-08
-2.03816e-09
-1.17897e-09
1.44562e-08
-1.77513e-09
2.65349e-11
1.32894e-08
-1.44668e-09
1.06094e-09
1.17751e-08
-1.09937e-09
1.60443e-09
9.94875e-09
-7.94961e-10
1.95834e-09
7.86648e-09
-5.82372e-10
2.17136e-09
5.69407e-09
-4.66375e-10
2.20845e-09
3.70033e-09
-4.20987e-10
2.00087e-09
2.11225e-09
-4.13212e-10
1.60412e-09
9.94537e-10
-4.11928e-10
1.16015e-09
2.45318e-10
-3.8762e-10
8.06935e-10
-2.46297e-10
2.84425e-10
1.61233e-08
-4.83468e-10
-1.67661e-08
1.53828e-08
-1.17161e-09
-2.5469e-10
1.5661e-08
-1.29372e-09
-9.91378e-10
1.5195e-08
-1.2371e-09
-3.48882e-11
1.40054e-08
-1.09984e-09
8.76278e-10
1.24866e-08
-9.14691e-10
1.35921e-09
1.07044e-08
-7.22228e-10
1.72355e-09
8.68174e-09
-5.61797e-10
2.00487e-09
6.52705e-09
-4.54113e-10
2.13538e-09
4.44761e-09
-3.98869e-10
2.0428e-09
2.66795e-09
-3.87365e-10
1.73458e-09
1.31406e-09
-3.96255e-10
1.31529e-09
3.44964e-10
-3.82773e-10
9.38179e-10
-2.38609e-10
3.29506e-10
1.6315e-08
-2.61777e-10
-1.65821e-08
1.56878e-08
-6.41496e-10
1.02526e-10
1.60206e-08
-7.80577e-10
-8.16043e-10
1.56135e-08
-8.04563e-10
1.20421e-11
1.44448e-08
-7.62927e-10
8.66848e-10
1.29182e-08
-6.78949e-10
1.31839e-09
1.11211e-08
-5.76728e-10
1.66837e-09
9.08773e-09
-4.81109e-10
1.95786e-09
6.92414e-09
-4.06754e-10
2.11082e-09
4.80966e-09
-3.62107e-10
2.06406e-09
2.95135e-09
-3.5008e-10
1.8019e-09
1.4857e-09
-3.57642e-10
1.4036e-09
3.97694e-10
-3.44278e-10
1.02249e-09
-2.09612e-10
3.60599e-10
1.63983e-08
-1.40776e-10
-1.65677e-08
1.58236e-08
-3.45649e-10
2.81327e-10
1.62109e-08
-4.52687e-10
-6.86976e-10
1.58608e-08
-4.97309e-10
7.97215e-11
1.47236e-08
-4.97831e-10
9.07356e-10
1.32025e-08
-4.68367e-10
1.33869e-09
1.13931e-08
-4.23016e-10
1.67352e-09
9.33895e-09
-3.76394e-10
1.95557e-09
7.15066e-09
-3.37426e-10
2.11427e-09
5.00174e-09
-3.13372e-10
2.08681e-09
3.09465e-09
-3.08876e-10
1.8466e-09
1.57013e-09
-3.16313e-10
1.45913e-09
4.20779e-10
-3.01795e-10
1.07886e-09
-1.79453e-10
3.82256e-10
1.64497e-08
-5.91301e-11
-1.65819e-08
1.58852e-08
-1.69275e-10
3.87978e-10
1.6308e-08
-2.45222e-10
-6.03994e-10
1.60002e-08
-2.89493e-10
1.35523e-10
1.48924e-08
-3.0704e-10
9.51588e-10
1.33832e-08
-3.05919e-10
1.37465e-09
1.15716e-08
-2.93414e-10
1.69978e-09
9.5052e-09
-2.78174e-10
1.97432e-09
7.29696e-09
-2.65654e-10
2.13178e-09
5.1198e-09
-2.60686e-10
2.11099e-09
3.17745e-09
-2.66356e-10
1.88024e-09
1.61608e-09
-2.76552e-10
1.49697e-09
4.31234e-10
-2.6326e-10
1.11752e-09
-1.53892e-10
3.97106e-10
1.64834e-08
-7.23297e-12
-1.65873e-08
1.59147e-08
-6.61765e-11
4.63439e-10
1.63583e-08
-1.19195e-10
-5.45233e-10
1.60778e-08
-1.56818e-10
1.81949e-10
1.49912e-08
-1.7955e-10
9.92484e-10
1.34935e-08
-1.91875e-10
1.41082e-09
1.16844e-08
-1.9691e-10
1.72971e-09
9.61327e-09
-1.99674e-10
1.99828e-09
7.39357e-09
-2.03606e-10
2.15257e-09
5.19764e-09
-2.11948e-10
2.13334e-09
3.2311e-09
-2.26133e-10
1.90634e-09
1.64489e-09
-2.39976e-10
1.52452e-09
4.37278e-10
-2.29184e-10
1.14413e-09
-1.32488e-10
4.07165e-10
1.65025e-08
2.00697e-11
-1.65827e-08
1.59278e-08
-1.15155e-11
5.16351e-10
1.63827e-08
-4.79233e-11
-5.03316e-10
1.61182e-08
-7.78908e-11
2.18359e-10
1.50454e-08
-1.00387e-10
1.02589e-09
1.35567e-08
-1.17817e-10
1.44087e-09
1.17515e-08
-1.31034e-10
1.75559e-09
9.67974e-09
-1.42831e-10
2.01983e-09
7.45482e-09
-1.55488e-10
2.17115e-09
5.24819e-09
-1.7129e-10
2.15166e-09
3.26652e-09
-1.90739e-10
1.92593e-09
1.66395e-09
-2.07286e-10
1.54436e-09
4.41149e-10
-1.99112e-10
1.16288e-09
-1.14186e-10
4.14037e-10
1.65101e-08
3.04219e-11
-1.65739e-08
1.5932e-08
1.30981e-11
5.48804e-10
1.63919e-08
-1.18061e-11
-4.74253e-10
1.6136e-08
-3.49342e-11
2.44694e-10
1.50716e-08
-5.49275e-11
1.05034e-09
1.35893e-08
-7.30496e-11
1.46284e-09
1.1788e-08
-8.90203e-11
1.77477e-09
9.71758e-09
-1.04325e-10
2.03615e-09
7.49103e-09
-1.20596e-10
2.18544e-09
5.27908e-09
-1.39502e-10
2.16539e-09
3.2888e-09
-1.61102e-10
1.93992e-09
1.6761e-09
-1.78829e-10
1.55841e-09
4.43435e-10
-1.72725e-10
1.17607e-09
-9.83633e-11
4.18732e-10
1.65107e-08
3.11099e-11
-1.6565e-08
1.59318e-08
2.15314e-11
5.6516e-10
1.63929e-08
3.39599e-12
-4.55103e-10
1.6141e-08
-1.42569e-11
2.62244e-10
1.50812e-08
-3.10619e-11
1.06658e-09
1.36033e-08
-4.77542e-11
1.47727e-09
1.18053e-08
-6.35828e-11
1.78742e-09
9.73695e-09
-7.93063e-11
2.04711e-09
7.51058e-09
-9.61719e-11
2.19525e-09
5.29646e-09
-1.15447e-10
2.17492e-09
3.30171e-09
-1.37006e-10
1.94963e-09
1.68315e-09
-1.54539e-10
1.56816e-09
4.44499e-10
-1.49757e-10
1.18521e-09
-8.46966e-11
4.21903e-10
1.65082e-08
2.69198e-11
-1.65577e-08
1.59289e-08
2.13305e-11
5.73986e-10
1.63897e-08
7.17965e-12
-4.43749e-10
1.61392e-08
-6.29386e-12
2.73097e-10
1.50819e-08
-1.99698e-11
1.07654e-09
1.36069e-08
-3.44062e-11
1.48588e-09
1.18116e-08
-4.87448e-11
1.79494e-09
9.74518e-09
-6.33454e-11
2.05376e-09
7.51976e-09
-7.91862e-11
2.20139e-09
5.3051e-09
-9.73451e-11
2.18111e-09
3.30829e-09
-1.1759e-10
1.95613e-09
1.68667e-09
-1.3401e-10
1.57478e-09
4.44685e-10
-1.29921e-10
1.19144e-09
-7.29249e-11
4.23951e-10
1.65045e-08
2.07222e-11
-1.6552e-08
1.59241e-08
1.6605e-11
5.79654e-10
1.63846e-08
5.32617e-12
-4.37867e-10
1.61343e-08
-4.95766e-12
2.79371e-10
1.50781e-08
-1.58695e-11
1.08224e-09
1.3605e-08
-2.7914e-11
1.49059e-09
1.18117e-08
-4.02777e-11
1.799e-09
9.74709e-09
-5.31147e-11
2.05744e-09
7.52289e-09
-6.72201e-11
2.20496e-09
5.30849e-09
-8.35776e-11
2.18497e-09
3.31093e-09
-1.01905e-10
1.96044e-09
1.6879e-09
-1.1671e-10
1.57925e-09
4.44312e-10
-1.12885e-10
1.19568e-09
-6.28125e-11
4.25216e-10
1.65011e-08
1.39295e-11
-1.65479e-08
1.59192e-08
9.90221e-12
5.83259e-10
1.63792e-08
1.09078e-12
-4.34996e-10
1.61284e-08
-6.71814e-12
2.82916e-10
1.50725e-08
-1.52985e-11
1.08535e-09
1.36006e-08
-2.51158e-11
1.49295e-09
1.18089e-08
-3.54531e-11
1.80093e-09
9.74581e-09
-4.63724e-11
2.05924e-09
7.5228e-09
-5.85428e-11
2.2069e-09
5.30897e-09
-7.28733e-11
2.18732e-09
3.3113e-09
-8.90866e-11
1.96328e-09
1.68778e-09
-1.02095e-10
1.5823e-09
4.43636e-10
-9.83099e-11
1.19858e-09
-5.41642e-11
4.2599e-10
1.64979e-08
7.5335e-12
-1.6545e-08
1.59148e-08
2.98613e-12
5.84802e-10
1.63741e-08
-3.74465e-12
-4.33534e-10
1.61225e-08
-9.63122e-12
2.84858e-10
1.50665e-08
-1.62865e-11
1.08693e-09
1.35954e-08
-2.41475e-11
1.49395e-09
1.18049e-08
-3.2604e-11
1.80163e-09
9.7431e-09
-4.16835e-11
2.05993e-09
7.52117e-09
-5.19725e-11
2.20784e-09
5.30798e-09
-6.43197e-11
2.18874e-09
3.31051e-09
-7.84473e-11
1.96517e-09
1.68697e-09
-8.96921e-11
1.58444e-09
4.42833e-10
-8.58251e-11
1.20056e-09
-4.67746e-11
4.26437e-10
1.64949e-08
2.40454e-12
-1.65432e-08
1.59113e-08
-2.6977e-12
5.84218e-10
1.63694e-08
-8.11105e-12
-4.32777e-10
1.6117e-08
-1.25742e-11
2.85761e-10
1.50608e-08
-1.76948e-11
1.08755e-09
1.35902e-08
-2.39161e-11
1.49413e-09
1.18006e-08
-3.07308e-11
1.80162e-09
9.73995e-09
-3.81657e-11
2.05998e-09
7.51898e-09
-4.67608e-11
2.20818e-09
5.3064e-09
-5.72977e-11
2.18959e-09
3.30924e-09
-6.94931e-11
1.96648e-09
1.68589e-09
-7.91113e-11
1.586e-09
4.42031e-10
-7.51627e-11
1.20201e-09
-4.05297e-11
4.26774e-10
1.64925e-08
-1.44288e-12
-1.6542e-08
1.59085e-08
-6.97205e-12
5.83191e-10
1.63653e-08
-1.16394e-11
-4.32295e-10
1.61121e-08
-1.50518e-11
2.86147e-10
1.50556e-08
-1.89608e-11
1.08767e-09
1.35854e-08
-2.38402e-11
1.49391e-09
1.17966e-08
-2.92713e-11
1.80126e-09
9.73689e-09
-3.52974e-11
2.05968e-09
7.51674e-09
-4.24287e-11
2.2082e-09
5.30471e-09
-5.13616e-11
2.19009e-09
3.30785e-09
-6.1835e-11
1.96741e-09
1.68476e-09
-7.00014e-11
1.58715e-09
4.41292e-10
-6.60001e-11
1.20306e-09
-3.52252e-11
4.26972e-10
1.64905e-08
-4.27298e-12
-1.6541e-08
1.59062e-08
-1.01205e-11
5.82487e-10
1.63619e-08
-1.4295e-11
-4.32013e-10
1.61079e-08
-1.693e-11
2.86297e-10
1.50512e-08
-1.98869e-11
1.08761e-09
1.35813e-08
-2.36676e-11
1.49354e-09
1.17931e-08
-2.79474e-11
1.80075e-09
9.73413e-09
-3.27869e-11
2.05923e-09
7.5147e-09
-3.86668e-11
2.20804e-09
5.30314e-09
-4.62101e-11
2.19037e-09
3.30656e-09
-5.51832e-11
1.9681e-09
1.68371e-09
-6.20858e-11
1.58805e-09
4.40641e-10
-5.80801e-11
1.20385e-09
-3.06881e-11
4.27087e-10
1.64889e-08
-6.22096e-12
-1.65402e-08
1.59041e-08
-1.22944e-11
5.81976e-10
1.63589e-08
-1.61183e-11
-4.31901e-10
1.61043e-08
-1.81799e-11
2.86274e-10
1.50474e-08
-2.03956e-11
1.08741e-09
1.35777e-08
-2.329e-11
1.49312e-09
1.179e-08
-2.66159e-11
1.8002e-09
9.73175e-09
-3.04616e-11
2.05872e-09
7.51294e-09
-3.52811e-11
2.20777e-09
5.30179e-09
-4.16428e-11
2.19052e-09
3.30544e-09
-4.93217e-11
1.96862e-09
1.68281e-09
-5.51443e-11
1.58876e-09
4.40082e-10
-5.11837e-11
1.20448e-09
-2.67805e-11
4.27155e-10
1.64876e-08
-7.45082e-12
-1.65396e-08
1.59023e-08
-1.36474e-11
5.81643e-10
1.63563e-08
-1.71953e-11
-4.31884e-10
1.61013e-08
-1.87983e-11
2.86109e-10
1.50442e-08
-2.04228e-11
1.0871e-09
1.35747e-08
-2.26163e-11
1.49263e-09
1.17875e-08
-2.51744e-11
1.79963e-09
9.72979e-09
-2.82085e-11
2.0582e-09
7.51152e-09
-3.21497e-11
2.20747e-09
5.30071e-09
-3.75212e-11
2.19059e-09
3.30454e-09
-4.40897e-11
1.96903e-09
1.68206e-09
-4.89945e-11
1.58936e-09
4.39613e-10
-4.51266e-11
1.205e-09
-2.33852e-11
4.27197e-10
1.64866e-08
-8.15234e-12
-1.65392e-08
1.59008e-08
-1.43089e-11
5.81443e-10
1.63543e-08
-1.76053e-11
-4.31962e-10
1.60989e-08
-1.88381e-11
2.85895e-10
1.50416e-08
-1.99926e-11
1.08678e-09
1.35723e-08
-2.16251e-11
1.49214e-09
1.17854e-08
-2.35759e-11
1.79908e-09
9.72823e-09
-2.59602e-11
2.0577e-09
7.51042e-09
-2.91852e-11
2.20716e-09
5.29989e-09
-3.37288e-11
2.19062e-09
3.30385e-09
-3.93572e-11
1.96938e-09
1.68147e-09
-4.34905e-11
1.58988e-09
4.39228e-10
-3.97528e-11
1.20544e-09
-2.04025e-11
4.27223e-10
1.64858e-08
-8.41611e-12
-1.65389e-08
1.58995e-08
-1.43734e-11
5.81337e-10
1.63526e-08
-1.74345e-11
-4.32127e-10
1.60969e-08
-1.83889e-11
2.85674e-10
1.50395e-08
-1.91781e-11
1.08649e-09
1.35703e-08
-2.03638e-11
1.49172e-09
1.17838e-08
-2.18279e-11
1.79859e-09
9.72701e-09
-2.36912e-11
2.05724e-09
7.50958e-09
-2.63338e-11
2.20687e-09
5.29929e-09
-3.01888e-11
2.19061e-09
3.30334e-09
-3.50326e-11
1.96967e-09
1.68101e-09
-3.85217e-11
1.59033e-09
4.3891e-10
-3.49452e-11
1.20584e-09
-1.77561e-11
4.27242e-10
1.64852e-08
-8.32295e-12
-1.65386e-08
1.58984e-08
-1.39725e-11
5.81373e-10
1.63511e-08
-1.67971e-11
-4.32306e-10
1.60952e-08
-1.75262e-11
2.85443e-10
1.50378e-08
-1.80256e-11
1.08622e-09
1.35687e-08
-1.88541e-11
1.49134e-09
1.17825e-08
-1.99313e-11
1.79814e-09
9.72606e-09
-2.13822e-11
2.05681e-09
7.50896e-09
-2.35583e-11
2.20659e-09
5.29887e-09
-2.68509e-11
2.1906e-09
3.30298e-09
-3.10495e-11
1.96994e-09
1.68066e-09
-3.40073e-11
1.59075e-09
4.38646e-10
-3.06083e-11
1.20619e-09
-1.53855e-11
4.27255e-10
1.64847e-08
-7.97138e-12
-1.65384e-08
1.58974e-08
-1.31991e-11
5.81529e-10
1.63499e-08
-1.57683e-11
-4.32506e-10
1.60939e-08
-1.62987e-11
2.85187e-10
1.50364e-08
-1.65625e-11
1.08594e-09
1.35673e-08
-1.71076e-11
1.49098e-09
1.17814e-08
-1.78832e-11
1.79772e-09
9.72531e-09
-1.90164e-11
2.05642e-09
7.50851e-09
-2.083e-11
2.20634e-09
5.29859e-09
-2.36719e-11
2.19058e-09
3.30272e-09
-2.73344e-11
1.97017e-09
1.68037e-09
-2.98543e-11
1.59113e-09
4.3842e-10
-2.66609e-11
1.2065e-09
-1.32434e-11
4.27258e-10
1.64843e-08
-7.41479e-12
-1.65382e-08
1.58964e-08
-1.21005e-11
5.81762e-10
1.63488e-08
-1.4387e-11
-4.32751e-10
1.60927e-08
-1.4733e-11
2.84903e-10
1.50352e-08
-1.47989e-11
1.08565e-09
1.35662e-08
-1.51221e-11
1.49063e-09
1.17805e-08
-1.56715e-11
1.79733e-09
9.72471e-09
-1.65725e-11
2.05606e-09
7.50816e-09
-1.81182e-11
2.2061e-09
5.29837e-09
-2.06103e-11
2.19056e-09
3.3025e-09
-2.38357e-11
1.97037e-09
1.68013e-09
-2.60034e-11
1.59144e-09
4.38226e-10
-2.30425e-11
1.20678e-09
-1.12908e-11
4.27256e-10
1.64839e-08
-6.68048e-12
-1.6538e-08
1.58954e-08
-1.07025e-11
5.82062e-10
1.63477e-08
-1.26739e-11
-4.3304e-10
1.60917e-08
-1.28403e-11
2.84589e-10
1.50341e-08
-1.27365e-11
1.08535e-09
1.35653e-08
-1.28876e-11
1.49028e-09
1.17798e-08
-1.32783e-11
1.79695e-09
9.72417e-09
-1.40278e-11
2.05572e-09
7.50782e-09
-1.53979e-11
2.20589e-09
5.29813e-09
-1.76402e-11
2.19054e-09
3.30227e-09
-2.05291e-11
1.97054e-09
1.6799e-09
-2.24258e-11
1.59171e-09
4.38047e-10
-1.97164e-11
1.20701e-09
-9.49906e-12
4.27241e-10
1.64836e-08
-5.80331e-12
-1.65379e-08
1.58944e-08
-9.02982e-12
5.82451e-10
1.63468e-08
-1.06355e-11
-4.33372e-10
1.60907e-08
-1.06157e-11
2.84244e-10
1.50331e-08
-1.03617e-11
1.08504e-09
1.35644e-08
-1.03846e-11
1.48993e-09
1.1779e-08
-1.06819e-11
1.7966e-09
9.72358e-09
-1.13615e-11
2.0554e-09
7.5074e-09
-1.26506e-11
2.20569e-09
5.2978e-09
-1.47444e-11
2.19052e-09
3.30197e-09
-1.7397e-11
1.97069e-09
1.67962e-09
-1.91017e-11
1.59194e-09
4.3786e-10
-1.66578e-11
1.20718e-09
-7.8541e-12
4.27204e-10
1.64834e-08
-4.83768e-12
-1.65377e-08
1.58934e-08
-7.11428e-12
5.82968e-10
1.63458e-08
-8.27128e-12
-4.33741e-10
1.60897e-08
-8.03455e-12
2.83867e-10
1.50321e-08
-7.64107e-12
1.08471e-09
1.35634e-08
-7.58188e-12
1.48958e-09
1.17781e-08
-7.85659e-12
1.79625e-09
9.72288e-09
-8.55278e-12
2.05511e-09
7.50683e-09
-9.85836e-12
2.20551e-09
5.29731e-09
-1.19111e-11
2.19051e-09
3.30152e-09
-1.44356e-11
1.97081e-09
1.67926e-09
-1.60301e-11
1.5921e-09
4.37664e-10
-1.38566e-11
1.20727e-09
-6.34541e-12
4.27149e-10
1.64833e-08
-3.86642e-12
-1.65376e-08
1.58924e-08
-5.04032e-12
5.83678e-10
1.63448e-08
-5.56563e-12
-4.3413e-10
1.60887e-08
-5.03879e-12
2.83456e-10
1.5031e-08
-4.51378e-12
1.08435e-09
1.35623e-08
-4.42781e-12
1.48922e-09
1.17771e-08
-4.76364e-12
1.7959e-09
9.72198e-09
-5.57275e-12
2.05483e-09
7.50602e-09
-7.00106e-12
2.20535e-09
5.29656e-09
-9.13153e-12
2.19049e-09
3.30086e-09
-1.16461e-11
1.9709e-09
1.67877e-09
-1.32236e-11
1.59219e-09
4.37437e-10
-1.13293e-11
1.20728e-09
-4.98829e-12
4.27077e-10
1.64833e-08
-3.07599e-12
-1.65375e-08
1.58915e-08
-3.11941e-12
5.84772e-10
1.63438e-08
-2.4963e-12
-4.34449e-10
1.60876e-08
-1.5365e-12
2.83044e-10
1.50298e-08
-9.00217e-13
1.084e-09
1.35611e-08
-8.58018e-13
1.48885e-09
1.17759e-08
-1.3552e-12
1.79555e-09
9.7208e-09
-2.38514e-12
2.05456e-09
7.50489e-09
-4.05576e-12
2.20521e-09
5.29548e-09
-6.39636e-12
2.19049e-09
3.2999e-09
-9.03629e-12
1.97096e-09
1.67807e-09
-1.07024e-11
1.59221e-09
4.37145e-10
-9.10969e-12
1.20718e-09
-3.80341e-12
4.26961e-10
1.64835e-08
-2.25402e-12
-1.65377e-08
1.58911e-08
-8.16471e-13
5.84902e-10
1.6343e-08
1.13675e-12
-4.34591e-10
1.60865e-08
2.60573e-12
2.82675e-10
1.50284e-08
3.3287e-12
1.0836e-09
1.35595e-08
3.25025e-12
1.48842e-09
1.17743e-08
2.46751e-12
1.79513e-09
9.71925e-09
1.05698e-12
2.05429e-09
7.50333e-09
-9.94661e-13
2.20509e-09
5.29395e-09
-3.69317e-12
2.19049e-09
3.29854e-09
-6.61993e-12
1.97097e-09
1.67711e-09
-8.5121e-12
1.59213e-09
4.36774e-10
-7.24837e-12
1.20694e-09
-2.78998e-12
4.26764e-10
1.64834e-08
-1.20169e-12
-1.65379e-08
1.58912e-08
2.2123e-12
5.83858e-10
1.63423e-08
5.39475e-12
-4.34485e-10
1.60852e-08
7.40759e-12
2.82547e-10
1.50268e-08
8.24381e-12
1.0833e-09
1.35576e-08
8.0057e-12
1.48801e-09
1.17723e-08
6.83421e-12
1.79468e-09
9.71717e-09
4.88151e-12
2.05392e-09
7.50119e-09
2.22886e-12
2.20498e-09
5.2918e-09
-1.00871e-12
2.19049e-09
3.29663e-09
-4.41418e-12
1.97093e-09
1.67577e-09
-6.68722e-12
1.59191e-09
4.36273e-10
-5.80631e-12
1.20652e-09
-1.99625e-12
4.26483e-10
1.64832e-08
-5.13713e-14
-1.65379e-08
1.58917e-08
5.63435e-12
5.82773e-10
1.63418e-08
1.0296e-11
-4.34218e-10
1.60838e-08
1.2963e-11
2.82628e-10
1.50247e-08
1.39626e-11
1.08312e-09
1.35551e-08
1.35358e-11
1.48766e-09
1.17695e-08
1.18792e-11
1.79424e-09
9.71427e-09
9.23413e-12
2.05349e-09
7.49823e-09
5.74476e-12
2.20472e-09
5.28885e-09
1.67108e-12
2.19046e-09
3.29403e-09
-2.45175e-12
1.97079e-09
1.67398e-09
-5.28228e-12
1.59151e-09
4.35629e-10
-4.8331e-12
1.20582e-09
-1.48044e-12
4.26117e-10
1.64835e-08
1.2274e-12
-1.65383e-08
1.58926e-08
9.75098e-12
5.81356e-10
1.63413e-08
1.62394e-11
-4.34019e-10
1.60822e-08
1.96824e-11
2.82624e-10
1.50221e-08
2.08405e-11
1.08287e-09
1.35518e-08
2.01303e-11
1.48725e-09
1.17658e-08
1.78189e-11
1.79375e-09
9.71027e-09
1.4255e-11
2.05306e-09
7.49415e-09
9.67852e-12
2.20435e-09
5.28486e-09
4.41482e-12
2.19027e-09
3.29057e-09
-7.78275e-13
1.97052e-09
1.67165e-09
-4.4413e-12
1.59091e-09
4.34835e-10
-4.49568e-12
1.2049e-09
-1.33088e-12
4.25686e-10
1.64838e-08
2.91475e-12
-1.65391e-08
1.58936e-08
1.50396e-11
5.79387e-10
1.63407e-08
2.37752e-11
-4.33975e-10
1.60799e-08
2.81057e-11
2.82459e-10
1.50186e-08
2.93503e-11
1.08245e-09
1.35474e-08
2.81713e-11
1.48669e-09
1.17608e-08
2.4942e-11
1.79311e-09
9.7049e-09
2.01378e-11
2.05251e-09
7.48864e-09
1.41e-11
2.20396e-09
5.27958e-09
7.26637e-12
2.18989e-09
3.28605e-09
5.43853e-13
1.97006e-09
1.66867e-09
-4.33417e-12
1.59006e-09
4.33839e-10
-5.04968e-12
1.20378e-09
-1.6924e-12
4.25196e-10
1.64841e-08
5.30114e-12
-1.65402e-08
1.58946e-08
2.20385e-11
5.7684e-10
1.63395e-08
3.35409e-11
-4.34034e-10
1.60767e-08
3.88559e-11
2.82154e-10
1.50138e-08
4.00427e-11
1.08183e-09
1.35414e-08
3.81013e-11
1.48591e-09
1.17541e-08
3.35725e-11
1.79228e-09
9.69781e-09
2.70916e-11
2.0518e-09
7.48143e-09
1.91034e-11
2.20345e-09
5.27275e-09
1.01846e-11
2.18941e-09
3.28032e-09
1.40998e-12
1.96936e-09
1.66496e-09
-5.09647e-12
1.58887e-09
4.32625e-10
-6.62633e-12
1.20227e-09
-2.66942e-12
4.24591e-10
1.64843e-08
8.83639e-12
-1.65416e-08
1.58956e-08
3.15279e-11
5.73445e-10
1.63375e-08
4.6394e-11
-4.34204e-10
1.60721e-08
5.27383e-11
2.81695e-10
1.50072e-08
5.35949e-11
1.08097e-09
1.35334e-08
5.04403e-11
1.48483e-09
1.17453e-08
4.4066e-11
1.79118e-09
9.68864e-09
3.53183e-11
2.05087e-09
7.47226e-09
2.47472e-11
2.20275e-09
5.26415e-09
1.30926e-11
2.18877e-09
3.2733e-09
1.67874e-12
1.96832e-09
1.66044e-09
-6.83794e-12
1.5873e-09
4.31136e-10
-9.31061e-12
1.20031e-09
-4.39495e-12
4.23842e-10
1.64842e-08
1.42129e-11
-1.65433e-08
1.58965e-08
4.46013e-11
5.6882e-10
1.63345e-08
6.34374e-11
-4.34482e-10
1.60656e-08
7.07141e-11
2.81116e-10
1.49982e-08
7.07604e-11
1.07986e-09
1.35229e-08
6.57104e-11
1.48344e-09
1.1734e-08
5.67235e-11
1.78978e-09
9.67703e-09
4.49177e-11
2.04972e-09
7.46088e-09
3.09612e-11
2.20188e-09
5.25371e-09
1.57848e-11
2.18798e-09
3.26507e-09
1.11653e-12
1.96689e-09
1.6553e-09
-9.75993e-12
1.58533e-09
4.29474e-10
-1.3295e-11
1.19808e-09
-6.97174e-12
4.23018e-10
1.64835e-08
2.2346e-11
-1.65454e-08
1.58971e-08
6.25486e-11
5.62679e-10
1.633e-08
8.58045e-11
-4.34672e-10
1.60566e-08
9.36495e-11
2.80696e-10
1.49862e-08
9.21039e-11
1.07874e-09
1.35092e-08
8.41763e-11
1.48189e-09
1.17197e-08
7.15426e-11
1.7882e-09
9.66274e-09
5.56539e-11
2.04848e-09
7.44727e-09
3.73258e-11
2.20095e-09
5.2417e-09
1.76761e-11
2.1871e-09
3.25611e-09
-6.73968e-13
1.96498e-09
1.65001e-09
-1.40457e-11
1.58295e-09
4.27862e-10
-1.85759e-11
1.19564e-09
-1.04024e-11
4.22236e-10
1.64818e-08
3.40878e-11
-1.65472e-08
1.58971e-08
8.63422e-11
5.55141e-10
1.63236e-08
1.14059e-10
-4.34109e-10
1.60446e-08
1.21678e-10
2.81244e-10
1.49707e-08
1.17382e-10
1.07831e-09
1.34921e-08
1.05276e-10
1.48079e-09
1.17023e-08
8.76822e-11
1.78703e-09
9.64594e-09
6.64542e-11
2.04768e-09
7.43188e-09
4.26032e-11
2.20051e-09
5.22919e-09
1.77083e-11
2.18596e-09
3.24772e-09
-4.3115e-12
1.96261e-09
1.64562e-09
-1.96988e-11
1.58022e-09
4.26678e-10
-2.47026e-11
1.19314e-09
-1.4428e-11
4.21601e-10
1.64788e-08
4.91737e-11
-1.65477e-08
1.58963e-08
1.1517e-10
5.47791e-10
1.63152e-08
1.46696e-10
-4.30988e-10
1.60295e-08
1.52795e-10
2.8475e-10
1.49517e-08
1.44256e-10
1.08037e-09
1.34719e-08
1.26435e-10
1.48175e-09
1.16826e-08
1.02394e-10
1.78772e-09
9.62789e-09
7.44059e-11
2.04866e-09
7.41656e-09
4.37146e-11
2.20176e-09
5.21881e-09
1.3754e-11
2.18485e-09
3.24265e-09
-1.0809e-11
1.95999e-09
1.64424e-09
-2.64246e-11
1.57738e-09
4.26787e-10
-3.03865e-11
1.19097e-09
-1.80651e-11
4.21241e-10
1.6475e-08
6.40522e-11
-1.65442e-08
1.58949e-08
1.43292e-10
5.45478e-10
1.63056e-08
1.77318e-10
-4.21268e-10
1.60124e-08
1.80275e-10
2.95377e-10
1.4931e-08
1.66037e-10
1.08862e-09
1.34509e-08
1.41117e-10
1.48809e-09
1.16633e-08
1.09195e-10
1.79341e-09
9.61178e-09
7.27803e-11
2.05476e-09
7.40607e-09
3.50758e-11
2.20562e-09
5.21588e-09
2.0071e-12
2.18483e-09
3.24595e-09
-2.16194e-11
1.95779e-09
1.64962e-09
-3.31647e-11
1.57499e-09
4.29599e-10
-3.29024e-11
1.18996e-09
-1.91301e-11
4.21366e-10
1.64726e-08
6.82188e-11
-1.65323e-08
1.5895e-08
1.54574e-10
5.58753e-10
1.62982e-08
1.9024e-10
-3.97101e-10
1.59977e-08
1.89306e-10
3.2014e-10
1.49137e-08
1.68972e-10
1.10914e-09
1.34347e-08
1.36309e-10
1.50567e-09
1.16506e-08
9.50311e-11
1.81035e-09
9.60518e-09
4.96762e-11
2.06952e-09
7.40941e-09
7.67903e-12
2.21399e-09
5.22947e-09
-2.31768e-11
2.18763e-09
3.26537e-09
-3.80609e-11
1.9572e-09
1.66675e-09
-3.74205e-11
1.57432e-09
4.3691e-10
-2.76038e-11
1.19141e-09
-1.37178e-11
4.22064e-10
1.64777e-08
4.01e-11
-1.65065e-08
1.59022e-08
1.16111e-10
6.04787e-10
1.63001e-08
1.5651e-10
-3.46605e-10
1.5994e-08
1.55307e-10
3.67435e-10
1.49097e-08
1.31249e-10
1.14897e-09
1.34335e-08
9.0669e-11
1.54262e-09
1.16556e-08
3.93683e-11
1.84454e-09
9.62183e-09
-1.21086e-11
2.09579e-09
7.44013e-09
-5.07551e-11
2.23031e-09
5.27136e-09
-6.73171e-11
2.19491e-09
3.30886e-09
-5.88569e-11
1.95949e-09
1.69944e-09
-3.38703e-11
1.57681e-09
4.50287e-10
-7.41179e-12
1.19526e-09
4.35639e-12
4.22694e-10
1.64998e-08
-5.06925e-11
-1.64666e-08
1.59263e-08
-1.83876e-11
6.97904e-10
1.63219e-08
3.98991e-11
-2.62735e-10
1.6013e-08
5.20654e-11
4.38333e-10
1.49307e-08
3.00016e-11
1.20941e-09
1.34601e-08
-1.96036e-11
1.60042e-09
1.16942e-08
-7.98586e-11
1.89501e-09
9.67716e-09
-1.29523e-10
2.13357e-09
7.51026e-09
-1.485e-10
2.25401e-09
5.34653e-09
-1.27849e-10
2.20573e-09
3.3734e-09
-7.49194e-11
1.96501e-09
1.74213e-09
-1.22845e-11
1.58028e-09
4.68311e-10
3.74229e-11
1.19518e-09
4.20979e-11
4.21067e-10
1.65426e-08
-2.07643e-10
-1.64437e-08
1.59899e-08
-2.7626e-10
8.00694e-10
1.63811e-08
-1.70986e-10
-1.63665e-10
1.60665e-08
-1.1347e-10
5.06024e-10
1.49852e-08
-1.32202e-10
1.26879e-09
1.35248e-08
-1.98919e-10
1.658e-09
1.17749e-08
-2.68804e-10
1.94723e-09
9.77076e-09
-3.01301e-10
2.17374e-09
7.60336e-09
-2.70723e-10
2.27812e-09
5.42071e-09
-1.81128e-10
2.21698e-09
3.41684e-09
-6.47855e-11
1.96942e-09
1.76265e-09
4.1588e-11
1.57121e-09
4.79108e-10
1.11895e-10
1.17603e-09
1.00441e-10
4.11462e-10
1.6592e-08
-3.13829e-10
-1.65354e-08
1.61431e-08
-6.10227e-10
7.76313e-10
1.65002e-08
-3.97151e-10
-1.1332e-10
1.61552e-08
-2.50967e-10
5.09296e-10
1.50701e-08
-2.97985e-10
1.2759e-09
1.36158e-08
-4.15822e-10
1.68814e-09
1.18611e-08
-4.99104e-10
1.99182e-09
9.82554e-09
-4.85191e-10
2.21615e-09
7.59955e-09
-3.64443e-10
2.30762e-09
5.3521e-09
-1.81893e-10
2.22923e-09
3.31479e-09
-5.61096e-12
1.95431e-09
1.6804e-09
1.23307e-10
1.5249e-09
4.53545e-10
1.91548e-10
1.11584e-09
1.57473e-10
3.87714e-10
1.66953e-08
-3.0245e-10
-1.67553e-08
1.64967e-08
-8.62135e-10
4.45027e-10
1.67364e-08
-4.15118e-10
-2.01519e-10
1.63048e-08
-2.03314e-10
4.13155e-10
1.51762e-08
-3.92976e-10
1.24976e-09
1.36404e-08
-6.14269e-10
1.75139e-09
1.17417e-08
-7.03818e-10
2.10986e-09
9.52422e-09
-6.04072e-10
2.33258e-09
7.13834e-09
-3.76721e-10
2.38549e-09
4.82126e-09
-1.25156e-10
2.24064e-09
2.85047e-09
6.15895e-11
1.87946e-09
1.38318e-09
1.59621e-10
1.40312e-09
3.55027e-10
1.92196e-10
9.96122e-10
1.57785e-10
3.46056e-10
1.71115e-08
-6.41763e-10
-1.68078e-08
1.70917e-08
-6.30111e-10
-2.12613e-10
1.70554e-08
3.13475e-10
-6.72766e-10
1.64526e-08
1.64465e-10
2.6269e-10
1.50309e-08
-3.76143e-10
1.43063e-09
1.30373e-08
-7.18146e-10
2.11468e-09
1.06469e-08
-8.07857e-10
2.50125e-09
8.06974e-09
-6.71003e-10
2.64041e-09
5.58319e-09
-4.40861e-10
2.53749e-09
3.46666e-09
-2.28803e-10
2.19945e-09
1.89957e-09
-8.57012e-11
1.68891e-09
8.61098e-10
-9.89016e-12
1.17847e-09
1.91389e-10
2.30766e-11
8.08424e-10
5.89429e-11
2.82106e-10
1.60721e-08
-1.6722e-08
1.74928e-08
-2.04882e-09
1.78833e-08
-6.91832e-11
1.68241e-08
1.23302e-09
1.4318e-08
2.1381e-09
1.11285e-08
2.47657e-09
7.91339e-09
2.4091e-09
5.17788e-09
2.06309e-09
3.14577e-09
1.58733e-09
1.78643e-09
1.12507e-09
9.36356e-10
7.58154e-10
4.17244e-10
5.02475e-10
1.04378e-10
3.29128e-10
1.6023e-10
1.76491e-09
-7.09692e-10
-1.92434e-08
4.15692e-09
-7.0719e-10
-1.24504e-09
4.72799e-09
-7.13961e-10
2.64399e-09
4.43167e-09
-1.51217e-10
3.22585e-09
3.58192e-09
4.62316e-10
3.03781e-09
2.57457e-09
6.78057e-10
2.58324e-09
1.67089e-09
5.98167e-10
2.08377e-09
9.94313e-10
3.72749e-10
1.62995e-09
5.43422e-10
1.44448e-10
1.2423e-09
2.72602e-10
-2.23144e-11
9.20198e-10
1.22438e-10
-1.16772e-10
6.69892e-10
4.44036e-11
-1.57082e-10
4.91225e-10
8.93064e-12
-1.61421e-10
3.62371e-10
-8.07451e-11
1.8661e-10
4.70365e-09
-3.47186e-10
-2.34576e-08
6.76194e-09
-7.0576e-10
-2.7911e-09
5.9223e-09
-2.79904e-10
3.75551e-10
5.1298e-09
1.13286e-10
1.68946e-09
4.43055e-09
6.22779e-10
2.636e-09
3.48678e-09
9.74117e-10
3.12302e-09
2.37083e-09
9.69321e-10
3.31984e-09
1.32286e-09
6.46343e-10
3.26522e-09
5.53554e-10
1.40021e-10
2.99849e-09
1.33749e-10
-3.69296e-10
2.53664e-09
-3.73657e-11
-7.06278e-10
2.00923e-09
-7.944e-11
-8.54943e-10
1.55083e-09
-3.62792e-11
-8.83574e-10
1.20597e-09
-2.68312e-10
3.58452e-10
5.76979e-09
-2.31988e-10
-2.31557e-08
7.52491e-09
-6.82296e-10
-2.61489e-09
6.55911e-09
-4.36366e-10
1.22901e-10
5.81111e-09
-1.82469e-10
1.22629e-09
5.39614e-09
1.30943e-10
2.0906e-09
4.95766e-09
4.72714e-10
2.62977e-09
4.31811e-09
6.17422e-10
2.99635e-09
3.49332e-09
4.93709e-10
3.15816e-09
2.60995e-09
1.37416e-10
3.07083e-09
1.78941e-09
-3.23515e-10
2.72606e-09
1.09234e-09
-7.24396e-10
2.25101e-09
5.28748e-10
-9.92991e-10
1.78045e-09
9.02864e-11
-1.11325e-09
1.39396e-09
-3.43275e-10
4.39085e-10
6.18607e-09
-1.83416e-10
-2.29529e-08
8.24914e-09
-5.66946e-10
-2.26096e-09
7.25293e-09
-4.90716e-10
2.35967e-10
6.45484e-09
-3.10765e-10
1.05252e-09
5.8743e-09
-9.91175e-11
1.82085e-09
5.37074e-09
1.1933e-10
2.31497e-09
4.80158e-09
2.52153e-10
2.71681e-09
4.09874e-09
2.20289e-10
3.00042e-09
3.30237e-09
9.76929e-12
3.04342e-09
2.47629e-09
-3.10496e-10
2.81166e-09
1.66551e-09
-6.40882e-10
2.39667e-09
8.88775e-10
-9.12149e-10
1.93076e-09
1.71825e-10
-1.06117e-09
1.5213e-09
-3.36209e-10
4.8332e-10
6.35999e-09
-1.19414e-10
-2.296e-08
8.66569e-09
-4.53413e-10
-2.1488e-09
7.74965e-09
-4.20021e-10
2.05742e-10
6.99106e-09
-3.0826e-10
9.30811e-10
6.34668e-09
-1.67775e-10
1.7181e-09
5.71014e-09
-3.39285e-11
2.21422e-09
5.02903e-09
4.15764e-11
2.62673e-09
4.27014e-09
1.73908e-11
2.9456e-09
3.46172e-09
-1.16176e-10
3.03391e-09
2.6469e-09
-3.28958e-10
2.85566e-09
1.83702e-09
-5.72251e-10
2.47832e-09
1.01431e-09
-7.92691e-10
2.02503e-09
2.00654e-10
-9.16084e-10
1.60681e-09
-2.95838e-10
5.09573e-10
6.47034e-09
-5.62016e-11
-2.30567e-08
8.91768e-09
-3.16802e-10
-2.1382e-09
8.08253e-09
-2.94951e-10
1.98032e-10
7.37715e-09
-2.34796e-10
8.74031e-10
6.72977e-09
-1.58663e-10
1.68476e-09
6.03605e-09
-8.91623e-11
2.19585e-09
5.2534e-09
-5.67136e-11
2.62412e-09
4.38765e-09
-8.65578e-11
2.95408e-09
3.50339e-09
-1.83395e-10
3.05646e-09
2.65786e-09
-3.34591e-10
2.89696e-09
1.84569e-09
-5.13778e-10
2.53466e-09
1.02256e-09
-6.81293e-10
2.08682e-09
1.9862e-10
-7.70918e-10
1.67063e-09
-2.53587e-10
5.27004e-10
6.55499e-09
-6.76784e-12
-2.31433e-08
9.10008e-09
-1.75739e-10
-2.13746e-09
8.31155e-09
-1.62711e-10
2.24173e-10
7.64129e-09
-1.41109e-10
8.72462e-10
6.99709e-09
-1.14887e-10
1.69024e-09
6.26781e-09
-9.25854e-11
2.21533e-09
5.42001e-09
-9.08476e-11
2.65155e-09
4.47713e-09
-1.26272e-10
2.98599e-09
3.52772e-09
-2.03809e-10
3.09238e-09
2.64418e-09
-3.19178e-10
2.93761e-09
1.82071e-09
-4.55813e-10
2.5788e-09
1.00273e-09
-5.83616e-10
2.13115e-09
1.8965e-10
-6.47328e-10
1.71756e-09
-2.17548e-10
5.38852e-10
6.61668e-09
2.3094e-11
-2.31923e-08
9.23425e-09
-5.42995e-11
-2.11859e-09
8.46885e-09
-4.95932e-11
2.75299e-10
7.81682e-09
-5.55733e-11
9.06019e-10
7.17343e-09
-6.30486e-11
1.72032e-09
6.42027e-09
-7.21453e-11
2.24996e-09
5.53079e-09
-9.10508e-11
2.68789e-09
4.5391e-09
-1.30903e-10
3.02249e-09
3.54595e-09
-1.96979e-10
3.12853e-09
2.63348e-09
-2.89375e-10
2.9733e-09
1.79932e-09
-3.97506e-10
2.61381e-09
9.8505e-10
-4.97619e-10
2.1648e-09
1.82556e-10
-5.43056e-10
1.75096e-09
-1.86778e-10
5.46903e-10
6.65445e-09
3.52439e-11
-2.3209e-08
9.32233e-09
3.26851e-11
-2.08485e-09
8.56779e-09
3.13646e-11
3.3515e-10
7.92323e-09
8.10554e-12
9.53987e-10
7.2784e-09
-1.88569e-11
1.76049e-09
6.51008e-09
-4.59587e-11
2.28729e-09
5.59483e-09
-7.69738e-11
2.72326e-09
4.57344e-09