/*--------------------------------*- C++ -*----------------------------------*\
| =========                 |                                                 |
| \\      /  F ield         | OpenFOAM: The Open Source CFD Toolbox           |
|  \\    /   O peration     | Version:  5.0                                   |
|   \\  /    A nd           | Web:      www.OpenFOAM.org                      |
|    \\/     M anipulation  |                                                 |
\*---------------------------------------------------------------------------*/
FoamFile
{
    version     2.0;
    format      ascii;
    class       volScalarField;
    location    "242";
    object      p;
}
// * * * * * * * * * * * * * * * * * * * * * * * * * * * * * * * * * * * * * //

dimensions      [0 2 -2 0 0 0 0];

internalField   nonuniform List<scalar> 
1568
(
1.10809e-14
2.59826e-14
4.91538e-14
5.25967e-14
6.11901e-14
7.31566e-14
7.74481e-14
8.25807e-14
8.82241e-14
9.27583e-14
9.69643e-14
1.01379e-13
1.05788e-13
1.09991e-13
1.14157e-13
1.1846e-13
1.22753e-13
1.27189e-13
1.31641e-13
1.36318e-13
1.40987e-13
1.45895e-13
1.50576e-13
1.54244e-13
1.569e-13
1.60693e-13
1.66517e-13
1.75077e-13
1.84046e-13
1.92207e-13
1.97595e-13
2.01188e-13
2.03757e-13
2.07712e-13
2.12321e-13
2.17269e-13
2.21665e-13
2.26434e-13
2.30768e-13
2.35157e-13
2.39251e-13
2.4354e-13
2.47501e-13
2.51728e-13
2.55827e-13
2.60155e-13
2.64471e-13
2.69116e-13
2.73992e-13
2.79293e-13
2.85136e-13
2.92412e-13
3.01056e-13
3.09265e-13
3.25467e-13
3.41399e-13
2.11933e-14
-4.63508e-14
1.30388e-13
7.62933e-14
2.9908e-14
9.18992e-14
8.66098e-14
8.24693e-14
9.47176e-14
1.00988e-13
1.02938e-13
1.06751e-13
1.11417e-13
1.15057e-13
1.19529e-13
1.23994e-13
1.27961e-13
1.32623e-13
1.36968e-13
1.41568e-13
1.45528e-13
1.50659e-13
1.54741e-13
1.60035e-13
1.63965e-13
1.69816e-13
1.73512e-13
1.78238e-13
1.79336e-13
1.86219e-13
1.90166e-13
1.95723e-13
1.97793e-13
2.03931e-13
2.07208e-13
2.13615e-13
2.15954e-13
2.2189e-13
2.24763e-13
2.2933e-13
2.33026e-13
2.38877e-13
2.4191e-13
2.46218e-13
2.49532e-13
2.54486e-13
2.58341e-13
2.633e-13
2.67839e-13
2.74566e-13
2.81509e-13
2.87516e-13
2.98984e-13
2.93272e-13
3.27625e-13
3.33434e-13
4.06416e-14
8.01819e-14
-1.2801e-15
4.88484e-14
6.54993e-14
8.50211e-14
7.66368e-14
8.5125e-14
9.28985e-14
9.06402e-14
9.95061e-14
1.06978e-13
1.08483e-13
1.1246e-13
1.17219e-13
1.1976e-13
1.24048e-13
1.28098e-13
1.32633e-13
1.3636e-13
1.41008e-13
1.45713e-13
1.51774e-13
1.56286e-13
1.62084e-13
1.65561e-13
1.70597e-13
1.75707e-13
1.82235e-13
1.86007e-13
1.9115e-13
1.97305e-13
2.06668e-13
2.11236e-13
2.15584e-13
2.18812e-13
2.24584e-13
2.27081e-13
2.31614e-13
2.3558e-13
2.37731e-13
2.3845e-13
2.43754e-13
2.47381e-13
2.52274e-13
2.56341e-13
2.60853e-13
2.65784e-13
2.70685e-13
2.75157e-13
2.79914e-13
2.78604e-13
3.08165e-13
3.0436e-13
3.09839e-13
3.22165e-13
4.50849e-14
7.42945e-14
9.16466e-14
6.82519e-14
9.65966e-14
1.03035e-13
9.298e-14
1.04078e-13
1.16198e-13
1.18434e-13
1.19617e-13
1.22516e-13
1.27042e-13
1.32267e-13
1.34645e-13
1.3907e-13
1.42986e-13
1.45941e-13
1.4842e-13
1.52988e-13
1.55936e-13
1.58913e-13
1.60976e-13
1.64237e-13
1.66634e-13
1.7055e-13
1.73829e-13
1.7835e-13
1.81985e-13
1.86284e-13
1.88829e-13
1.89646e-13
1.90026e-13
1.91976e-13
1.95694e-13
1.99164e-13
2.02636e-13
2.06754e-13
2.09611e-13
2.14172e-13
2.19212e-13
2.24849e-13
2.28342e-13
2.31824e-13
2.35324e-13
2.39251e-13
2.42336e-13
2.47723e-13
2.53507e-13
2.57219e-13
2.67502e-13
2.75394e-13
2.7793e-13
2.74308e-13
3.11118e-13
3.12903e-13
5.40181e-14
3.78298e-14
7.3229e-14
7.57163e-14
9.3802e-14
9.31948e-14
9.50797e-14
1.05656e-13
1.09726e-13
1.12987e-13
1.17005e-13
1.21417e-13
1.25007e-13
1.2782e-13
1.30815e-13
1.34735e-13
1.38291e-13
1.42084e-13
1.45756e-13
1.49295e-13
1.52562e-13
1.55973e-13
1.59544e-13
1.63332e-13
1.6655e-13
1.70335e-13
1.73975e-13
1.7708e-13
1.80358e-13
1.84151e-13
1.88234e-13
1.92187e-13
1.95729e-13
1.99221e-13
2.03596e-13
2.07097e-13
2.09831e-13
2.13311e-13
2.16586e-13
2.1952e-13
2.22315e-13
2.2532e-13
2.28193e-13
2.31626e-13
2.35262e-13
2.39238e-13
2.43684e-13
2.47841e-13
2.50979e-13
2.593e-13
2.655e-13
2.57214e-13
2.81796e-13
2.95298e-13
2.88231e-13
3.00396e-13
6.97831e-14
7.99486e-14
9.02346e-14
9.71274e-14
9.52594e-14
9.38256e-14
1.05929e-13
1.14111e-13
1.13032e-13
1.16151e-13
1.21681e-13
1.25877e-13
1.28849e-13
1.32412e-13
1.36221e-13
1.38905e-13
1.41409e-13
1.44372e-13
1.4761e-13
1.50285e-13
1.53382e-13
1.57034e-13
1.60494e-13
1.63752e-13
1.6703e-13
1.70069e-13
1.73583e-13
1.77277e-13
1.80778e-13
1.84275e-13
1.87576e-13
1.91103e-13
1.95188e-13
1.98634e-13
2.01358e-13
2.04296e-13
2.07395e-13
2.10593e-13
2.13783e-13
2.16906e-13
2.19796e-13
2.22875e-13
2.26245e-13
2.29227e-13
2.32826e-13
2.36402e-13
2.3926e-13
2.44314e-13
2.49294e-13
2.49242e-13
2.57722e-13
2.69116e-13
2.6806e-13
2.57359e-13
2.88297e-13
2.9018e-13
8.12861e-14
9.33427e-14
9.68557e-14
9.90416e-14
1.04247e-13
1.10818e-13
1.18178e-13
1.21533e-13
1.24079e-13
1.28113e-13
1.32189e-13
1.34847e-13
1.37314e-13
1.40296e-13
1.4318e-13
1.46003e-13
1.48859e-13
1.51442e-13
1.54032e-13
1.56867e-13
1.59651e-13
1.62063e-13
1.64491e-13
1.67089e-13
1.69881e-13
1.72572e-13
1.75353e-13
1.78056e-13
1.80887e-13
1.83593e-13
1.85711e-13
1.87763e-13
1.90306e-13
1.92725e-13
1.94985e-13
1.97542e-13
2.00617e-13
2.03227e-13
2.05796e-13
2.08687e-13
2.11805e-13
2.14808e-13
2.17726e-13
2.20654e-13
2.23932e-13
2.26973e-13
2.30068e-13
2.34364e-13
2.37114e-13
2.42035e-13
2.50232e-13
2.43751e-13
2.59501e-13
2.73759e-13
2.70578e-13
2.76944e-13
9.22446e-14
9.62318e-14
1.00371e-13
1.05564e-13
1.15699e-13
1.20415e-13
1.22527e-13
1.24789e-13
1.29219e-13
1.32388e-13
1.35725e-13
1.38478e-13
1.41193e-13
1.43829e-13
1.46244e-13
1.48796e-13
1.51377e-13
1.53794e-13
1.56192e-13
1.58632e-13
1.60939e-13
1.63333e-13
1.65653e-13
1.68065e-13
1.70451e-13
1.72956e-13
1.75286e-13
1.77671e-13
1.8022e-13
1.82684e-13
1.85423e-13
1.88094e-13
1.90137e-13
1.9241e-13
1.95158e-13
1.97632e-13
1.99824e-13
2.0213e-13
2.04357e-13
2.06712e-13
2.09016e-13
2.11224e-13
2.13539e-13
2.16116e-13
2.18831e-13
2.21494e-13
2.23981e-13
2.28191e-13
2.32148e-13
2.33494e-13
2.39229e-13
2.45463e-13
2.49014e-13
2.40249e-13
2.62154e-13
2.65174e-13
1.04994e-13
1.09043e-13
1.16211e-13
1.20343e-13
1.26224e-13
1.25792e-13
1.2926e-13
1.33267e-13
1.36248e-13
1.39246e-13
1.41886e-13
1.43541e-13
1.46211e-13
1.48887e-13
1.50962e-13
1.52979e-13
1.54957e-13
1.57065e-13
1.5917e-13
1.61063e-13
1.63045e-13
1.65455e-13
1.67511e-13
1.69532e-13
1.71624e-13
1.73705e-13
1.75792e-13
1.77945e-13
1.80077e-13
1.82091e-13
1.84387e-13
1.86661e-13
1.88848e-13
1.90944e-13
1.93072e-13
1.95037e-13
1.96951e-13
1.98932e-13
2.00999e-13
2.03022e-13
2.05035e-13
2.07176e-13
2.09352e-13
2.1143e-13
2.13778e-13
2.16367e-13
2.18936e-13
2.21986e-13
2.23927e-13
2.27333e-13
2.3415e-13
2.29195e-13
2.3934e-13
2.47143e-13
2.47064e-13
2.51844e-13
1.18342e-13
1.23692e-13
1.27454e-13
1.30101e-13
1.34933e-13
1.34219e-13
1.39499e-13
1.43282e-13
1.44048e-13
1.46553e-13
1.49252e-13
1.50998e-13
1.52926e-13
1.5485e-13
1.56415e-13
1.583e-13
1.59996e-13
1.61596e-13
1.6319e-13
1.65159e-13
1.66671e-13
1.68097e-13
1.69758e-13
1.71508e-13
1.73066e-13
1.74729e-13
1.76556e-13
1.78381e-13
1.80025e-13
1.81735e-13
1.8319e-13
1.84693e-13
1.863e-13
1.88007e-13
1.8957e-13
1.91064e-13
1.92805e-13
1.94588e-13
1.96262e-13
1.97897e-13
1.99633e-13
2.01488e-13
2.03208e-13
2.05082e-13
2.07233e-13
2.0924e-13
2.10929e-13
2.13917e-13
2.16446e-13
2.17507e-13
2.22441e-13
2.23703e-13
2.30307e-13
2.25447e-13
2.36629e-13
2.39231e-13
1.31394e-13
1.35474e-13
1.36476e-13
1.40169e-13
1.44934e-13
1.44115e-13
1.48165e-13
1.50834e-13
1.51774e-13
1.5361e-13
1.55242e-13
1.57238e-13
1.58688e-13
1.59914e-13
1.61339e-13
1.62818e-13
1.64267e-13
1.65565e-13
1.66836e-13
1.68033e-13
1.69457e-13
1.70578e-13
1.7188e-13
1.72981e-13
1.74233e-13
1.75521e-13
1.77087e-13
1.78492e-13
1.79904e-13
1.81228e-13
1.82328e-13
1.83552e-13
1.84839e-13
1.86073e-13
1.87343e-13
1.88619e-13
1.89908e-13
1.91173e-13
1.92445e-13
1.93754e-13
1.95109e-13
1.9644e-13
1.97758e-13
1.99202e-13
2.00867e-13
2.02256e-13
2.03845e-13
2.065e-13
2.07464e-13
2.08692e-13
2.15257e-13
2.12021e-13
2.15437e-13
2.20009e-13
2.23796e-13
2.25812e-13
1.44876e-13
1.48363e-13
1.48277e-13
1.51057e-13
1.55341e-13
1.53944e-13
1.56839e-13
1.58576e-13
1.59056e-13
1.60734e-13
1.62186e-13
1.63105e-13
1.63879e-13
1.65159e-13
1.66597e-13
1.67246e-13
1.68039e-13
1.69081e-13
1.70214e-13
1.70868e-13
1.71925e-13
1.72962e-13
1.74039e-13
1.75078e-13
1.76371e-13
1.77249e-13
1.77792e-13
1.78125e-13
1.78864e-13
1.79934e-13
1.81205e-13
1.82358e-13
1.83258e-13
1.8412e-13
1.85036e-13
1.86147e-13
1.87018e-13
1.87881e-13
1.88814e-13
1.89755e-13
1.90664e-13
1.91749e-13
1.92752e-13
1.93734e-13
1.95014e-13
1.95989e-13
1.96907e-13
1.9879e-13
2.00117e-13
2.00875e-13
2.03377e-13
2.01786e-13
2.097e-13
2.07315e-13
2.08904e-13
2.12338e-13
1.5838e-13
1.61073e-13
1.60832e-13
1.62513e-13
1.65374e-13
1.63508e-13
1.65817e-13
1.67099e-13
1.66938e-13
1.67911e-13
1.69596e-13
1.70084e-13
1.70074e-13
1.70973e-13
1.71636e-13
1.72059e-13
1.72633e-13
1.73271e-13
1.7385e-13
1.74388e-13
1.74798e-13
1.75397e-13
1.75681e-13
1.75904e-13
1.76256e-13
1.77e-13
1.77985e-13
1.79221e-13
1.80062e-13
1.80255e-13
1.80466e-13
1.80922e-13
1.81455e-13
1.82118e-13
1.82667e-13
1.82975e-13
1.83625e-13
1.84247e-13
1.84783e-13
1.85319e-13
1.85875e-13
1.86512e-13
1.87059e-13
1.87552e-13
1.88322e-13
1.89054e-13
1.89547e-13
1.91399e-13
1.91394e-13
1.90293e-13
1.96685e-13
1.9451e-13
1.92405e-13
1.92502e-13
2.00098e-13
1.99137e-13
1.72089e-13
1.73826e-13
1.72361e-13
1.73718e-13
1.75585e-13
1.73189e-13
1.74814e-13
1.75643e-13
1.75193e-13
1.75509e-13
1.76087e-13
1.76124e-13
1.76239e-13
1.76641e-13
1.76503e-13
1.76762e-13
1.77135e-13
1.77196e-13
1.77217e-13
1.77527e-13
1.77737e-13
1.77954e-13
1.78258e-13
1.78847e-13
1.79014e-13
1.79072e-13
1.78718e-13
1.78419e-13
1.78487e-13
1.78934e-13
1.79262e-13
1.79564e-13
1.79641e-13
1.79775e-13
1.80128e-13
1.8016e-13
1.80455e-13
1.80595e-13
1.807e-13
1.80973e-13
1.8118e-13
1.81317e-13
1.81474e-13
1.81653e-13
1.81955e-13
1.82284e-13
1.82145e-13
1.82668e-13
1.83082e-13
1.83919e-13
1.84152e-13
1.78104e-13
1.89768e-13
1.87202e-13
1.82557e-13
1.85086e-13
1.85684e-13
1.86519e-13
1.84236e-13
1.84684e-13
1.86072e-13
1.82929e-13
1.83874e-13
1.8408e-13
1.82971e-13
1.82979e-13
1.82633e-13
1.82282e-13
1.82261e-13
1.81888e-13
1.81752e-13
1.81591e-13
1.81317e-13
1.80995e-13
1.80884e-13
1.80775e-13
1.80539e-13
1.80233e-13
1.80245e-13
1.80329e-13
1.80165e-13
1.79737e-13
1.79355e-13
1.78681e-13
1.78314e-13
1.78412e-13
1.78413e-13
1.78199e-13
1.78028e-13
1.77692e-13
1.77531e-13
1.77515e-13
1.77238e-13
1.76957e-13
1.76848e-13
1.76607e-13
1.76427e-13
1.76259e-13
1.7621e-13
1.75854e-13
1.75741e-13
1.75396e-13
1.74975e-13
1.75667e-13
1.74604e-13
1.72017e-13
1.76591e-13
1.75464e-13
1.71051e-13
1.63385e-13
1.75696e-13
1.72009e-13
1.99593e-13
2.00997e-13
1.9603e-13
1.95491e-13
1.96672e-13
1.92607e-13
1.9297e-13
1.92515e-13
1.90794e-13
1.90418e-13
1.89427e-13
1.8853e-13
1.88257e-13
1.87519e-13
1.86995e-13
1.86356e-13
1.85688e-13
1.85218e-13
1.84653e-13
1.83903e-13
1.83289e-13
1.8289e-13
1.81962e-13
1.80884e-13
1.80054e-13
1.7959e-13
1.79715e-13
1.79882e-13
1.79517e-13
1.78626e-13
1.77525e-13
1.76823e-13
1.76408e-13
1.75934e-13
1.75151e-13
1.74645e-13
1.7394e-13
1.73507e-13
1.72991e-13
1.7232e-13
1.71743e-13
1.71241e-13
1.70454e-13
1.69751e-13
1.69461e-13
1.6882e-13
1.67597e-13
1.66871e-13
1.66435e-13
1.66807e-13
1.64234e-13
1.5617e-13
1.69816e-13
1.6496e-13
1.57137e-13
1.57758e-13
2.13014e-13
2.12214e-13
2.0751e-13
2.06839e-13
2.07102e-13
2.01986e-13
2.01945e-13
2.00957e-13
1.98657e-13
1.97674e-13
1.9653e-13
1.95194e-13
1.94144e-13
1.93061e-13
1.9195e-13
1.90871e-13
1.89929e-13
1.8897e-13
1.87971e-13
1.87006e-13
1.86075e-13
1.85186e-13
1.84342e-13
1.83751e-13
1.82988e-13
1.81918e-13
1.80456e-13
1.78971e-13
1.77838e-13
1.7707e-13
1.76315e-13
1.75599e-13
1.74557e-13
1.73636e-13
1.72681e-13
1.7185e-13
1.70864e-13
1.69969e-13
1.68931e-13
1.68055e-13
1.67081e-13
1.66216e-13
1.65049e-13
1.63952e-13
1.62987e-13
1.6181e-13
1.60199e-13
1.60258e-13
1.57898e-13
1.53452e-13
1.57782e-13
1.56653e-13
1.46796e-13
1.3816e-13
1.51397e-13
1.45017e-13
2.26795e-13
2.2686e-13
2.19797e-13
2.17607e-13
2.1759e-13
2.11661e-13
2.10971e-13
2.09433e-13
2.06526e-13
2.04971e-13
2.03516e-13
2.01735e-13
2.00173e-13
1.9867e-13
1.97257e-13
1.95877e-13
1.94534e-13
1.93058e-13
1.91775e-13
1.90429e-13
1.8919e-13
1.87612e-13
1.86313e-13
1.84762e-13
1.83501e-13
1.82067e-13
1.81074e-13
1.79618e-13
1.78503e-13
1.76929e-13
1.7573e-13
1.7409e-13
1.72893e-13
1.71319e-13
1.70289e-13
1.68721e-13
1.67631e-13
1.66101e-13
1.65009e-13
1.63442e-13
1.62252e-13
1.6068e-13
1.59482e-13
1.57761e-13
1.56507e-13
1.54961e-13
1.53216e-13
1.51045e-13
1.49825e-13
1.49423e-13
1.44864e-13
1.34695e-13
1.49471e-13
1.43993e-13
1.29859e-13
1.30765e-13
2.40049e-13
2.37703e-13
2.31416e-13
2.27889e-13
2.2765e-13
2.21026e-13
2.19616e-13
2.1759e-13
2.14085e-13
2.12163e-13
2.10151e-13
2.08e-13
2.05826e-13
2.04183e-13
2.02214e-13
2.00667e-13
1.98614e-13
1.97203e-13
1.9517e-13
1.9379e-13
1.91667e-13
1.90376e-13
1.88278e-13
1.86886e-13
1.84694e-13
1.83424e-13
1.81291e-13
1.80111e-13
1.77925e-13
1.76632e-13
1.74293e-13
1.7301e-13
1.70907e-13
1.69677e-13
1.67494e-13
1.66266e-13
1.6418e-13
1.62949e-13
1.60863e-13
1.59553e-13
1.57457e-13
1.56159e-13
1.5399e-13
1.52263e-13
1.50278e-13
1.48322e-13
1.45567e-13
1.4508e-13
1.41459e-13
1.3486e-13
1.39858e-13
1.37909e-13
1.23659e-13
1.12608e-13
1.26545e-13
1.18585e-13
2.53364e-13
2.51133e-13
2.43449e-13
2.37529e-13
2.37068e-13
2.29479e-13
2.27493e-13
2.24983e-13
2.21083e-13
2.18325e-13
2.16032e-13
2.13332e-13
2.11063e-13
2.08753e-13
2.06588e-13
2.0419e-13
2.02233e-13
2.00081e-13
1.98148e-13
1.95958e-13
1.94012e-13
1.92008e-13
1.89891e-13
1.8792e-13
1.85832e-13
1.83901e-13
1.81717e-13
1.79837e-13
1.7754e-13
1.75702e-13
1.73502e-13
1.71864e-13
1.69622e-13
1.67914e-13
1.6557e-13
1.63891e-13
1.61473e-13
1.59866e-13
1.5754e-13
1.55858e-13
1.53422e-13
1.51761e-13
1.49203e-13
1.47377e-13
1.44932e-13
1.43031e-13
1.39935e-13
1.36911e-13
1.33772e-13
1.35185e-13
1.26739e-13
1.11274e-13
1.31552e-13
1.26833e-13
1.04396e-13
1.04415e-13
2.66311e-13
2.62271e-13
2.54782e-13
2.47916e-13
2.48209e-13
2.39317e-13
2.36309e-13
2.3326e-13
2.29094e-13
2.25731e-13
2.23325e-13
2.19741e-13
2.175e-13
2.14124e-13
2.12722e-13
2.09236e-13
2.08012e-13
2.0401e-13
2.03234e-13
1.99122e-13
1.98609e-13
1.94048e-13
1.93803e-13
1.89119e-13
1.89052e-13
1.83963e-13
1.84113e-13
1.78638e-13
1.78977e-13
1.73588e-13
1.74154e-13
1.68604e-13
1.69253e-13
1.63833e-13
1.64686e-13
1.59013e-13
1.59661e-13
1.54206e-13
1.54765e-13
1.49314e-13
1.49649e-13
1.44343e-13
1.44235e-13
1.39444e-13
1.39345e-13
1.34292e-13
1.32413e-13
1.29231e-13
1.27809e-13
1.16012e-13
1.19425e-13
1.24544e-13
1.04358e-13
8.24596e-14
1.04818e-13
9.31162e-14
2.78807e-13
2.72479e-13
2.66986e-13
2.54633e-13
2.55409e-13
2.4796e-13
2.43478e-13
2.4051e-13
2.35668e-13
2.32788e-13
2.28755e-13
2.263e-13
2.22613e-13
2.20595e-13
2.16287e-13
2.14419e-13
2.10432e-13
2.09267e-13
2.04729e-13
2.0371e-13
1.98974e-13
1.98286e-13
1.93517e-13
1.92673e-13
1.87794e-13
1.87045e-13
1.82134e-13
1.81464e-13
1.76435e-13
1.75719e-13
1.70385e-13
1.69428e-13
1.64175e-13
1.63125e-13
1.58258e-13
1.57938e-13
1.53621e-13
1.5264e-13
1.48378e-13
1.47606e-13
1.43751e-13
1.42896e-13
1.38772e-13
1.36723e-13
1.32294e-13
1.2996e-13
1.26615e-13
1.23718e-13
1.17529e-13
1.17939e-13
1.14367e-13
8.96141e-14
1.10115e-13
1.08543e-13
8.34672e-14
7.94756e-14
2.90835e-13
2.83709e-13
2.75458e-13
2.6513e-13
2.6258e-13
2.53942e-13
2.49607e-13
2.45919e-13
2.40016e-13
2.36878e-13
2.32622e-13
2.29885e-13
2.24723e-13
2.23087e-13
2.17968e-13
2.17258e-13
2.11223e-13
2.11297e-13
2.04873e-13
2.05689e-13
1.98435e-13
2.00081e-13
1.91845e-13
1.94365e-13
1.85584e-13
1.88832e-13
1.79511e-13
1.83353e-13
1.73319e-13
1.77571e-13
1.67047e-13
1.71737e-13
1.61204e-13
1.66276e-13
1.5534e-13
1.60438e-13
1.49154e-13
1.54547e-13
1.4431e-13
1.49031e-13
1.38425e-13
1.42954e-13
1.33025e-13
1.36352e-13
1.27699e-13
1.3024e-13
1.19913e-13
1.20919e-13
1.13843e-13
1.09775e-13
9.99474e-14
1.07621e-13
9.55319e-14
6.75574e-14
7.99919e-14
6.88237e-14
3.0301e-13
2.99013e-13
2.84363e-13
2.80382e-13
2.74754e-13
2.64341e-13
2.61821e-13
2.56043e-13
2.51166e-13
2.46102e-13
2.44034e-13
2.38053e-13
2.36801e-13
2.30829e-13
2.30688e-13
2.23734e-13
2.24537e-13
2.16173e-13
2.18205e-13
2.08556e-13
2.11787e-13
2.00944e-13
2.04992e-13
1.93217e-13
1.97866e-13
1.85254e-13
1.90133e-13
1.76439e-13
1.8215e-13
1.67932e-13
1.7437e-13
1.60431e-13
1.6725e-13
1.53371e-13
1.60203e-13
1.45744e-13
1.52497e-13
1.39215e-13
1.44131e-13
1.31515e-13
1.36751e-13
1.24373e-13
1.28353e-13
1.17568e-13
1.20978e-13
1.10808e-13
1.1178e-13
1.04355e-13
1.03845e-13
9.46257e-14
9.60284e-14
7.94496e-14
7.37761e-14
8.73567e-14
5.758e-14
5.57674e-14
3.1415e-13
3.05815e-13
2.83711e-13
2.82767e-13
2.7817e-13
2.68702e-13
2.65061e-13
2.60379e-13
2.55175e-13
2.50728e-13
2.46798e-13
2.42298e-13
2.39073e-13
2.34238e-13
2.30812e-13
2.25798e-13
2.23469e-13
2.17909e-13
2.16054e-13
2.10193e-13
2.08839e-13
2.02686e-13
2.01842e-13
1.94711e-13
1.94554e-13
1.87214e-13
1.8751e-13
1.79144e-13
1.79155e-13
1.69758e-13
1.68909e-13
1.57782e-13
1.56961e-13
1.47753e-13
1.50145e-13
1.42637e-13
1.45329e-13
1.35654e-13
1.39783e-13
1.32991e-13
1.36392e-13
1.27963e-13
1.29634e-13
1.20613e-13
1.21602e-13
1.13132e-13
1.14115e-13
1.06011e-13
1.04178e-13
9.4163e-14
9.60415e-14
8.63199e-14
8.13092e-14
6.92899e-14
5.61469e-14
4.58121e-14
3.254e-13
3.21512e-13
3.06907e-13
2.94248e-13
2.87777e-13
2.75861e-13
2.68152e-13
2.64355e-13
2.5708e-13
2.53642e-13
2.47153e-13
2.4532e-13
2.38231e-13
2.38286e-13
2.30273e-13
2.31754e-13
2.22252e-13
2.25312e-13
2.13801e-13
2.18536e-13
2.04746e-13
2.10744e-13
1.95233e-13
2.03732e-13
1.87008e-13
1.96365e-13
1.77403e-13
1.87141e-13
1.67016e-13
1.79092e-13
1.60711e-13
1.77804e-13
1.60394e-13
1.74132e-13
1.51307e-13
1.62946e-13
1.40712e-13
1.52908e-13
1.32855e-13
1.39698e-13
1.18345e-13
1.29119e-13
1.12019e-13
1.20603e-13
1.05497e-13
1.11726e-13
9.64625e-14
1.00489e-13
8.90523e-14
8.85805e-14
7.49524e-14
6.67443e-14
6.47832e-14
5.10505e-14
3.88965e-14
3.4477e-14
3.35465e-13
3.21872e-13
3.10526e-13
2.95274e-13
2.90135e-13
2.84147e-13
2.78552e-13
2.72438e-13
2.67361e-13
2.62638e-13
2.58838e-13
2.53966e-13
2.50149e-13
2.4537e-13
2.42098e-13
2.36924e-13
2.33414e-13
2.28124e-13
2.24717e-13
2.18986e-13
2.15834e-13
2.10053e-13
2.06429e-13
1.99568e-13
1.95692e-13
1.89162e-13
1.86285e-13
1.80437e-13
1.78689e-13
1.72279e-13
1.68795e-13
1.60071e-13
1.552e-13
1.47903e-13
1.45442e-13
1.39494e-13
1.37421e-13
1.31455e-13
1.28205e-13
1.24078e-13
1.22609e-13
1.17355e-13
1.13752e-13
1.08939e-13
1.05703e-13
1.00788e-13
9.68121e-14
9.26548e-14
8.77872e-14
8.13743e-14
7.65193e-14
7.05205e-14
6.3668e-14
4.78068e-14
4.02464e-14
2.49034e-14
3.4339e-13
3.25913e-13
3.11158e-13
3.0122e-13
2.93352e-13
2.86153e-13
2.79968e-13
2.74435e-13
2.69484e-13
2.64737e-13
2.60332e-13
2.5589e-13
2.51755e-13
2.47365e-13
2.43267e-13
2.38766e-13
2.34623e-13
2.29944e-13
2.25686e-13
2.20742e-13
2.16345e-13
2.11154e-13
2.06905e-13
2.03088e-13
2.00822e-13
1.96724e-13
1.91219e-13
1.82281e-13
1.73639e-13
1.65218e-13
1.6044e-13
1.56752e-13
1.54777e-13
1.50561e-13
1.46529e-13
1.41221e-13
1.37179e-13
1.32119e-13
1.28146e-13
1.23369e-13
1.19575e-13
1.14904e-13
1.11195e-13
1.06739e-13
1.02958e-13
9.84249e-14
9.43328e-14
8.95328e-14
8.47913e-14
7.91386e-14
7.32259e-14
6.61905e-14
5.83813e-14
4.83763e-14
3.39203e-14
1.65046e-14
)
;

boundaryField
{
    top
    {
        type            zeroGradient;
    }
    bottom
    {
        type            zeroGradient;
    }
    rotatingWall
    {
        type            zeroGradient;
    }
    wall
    {
        type            zeroGradient;
    }
    frontAndBack
    {
        type            empty;
    }
}


// ************************************************************************* //
