/*--------------------------------*- C++ -*----------------------------------*\
| =========                 |                                                 |
| \\      /  F ield         | OpenFOAM: The Open Source CFD Toolbox           |
|  \\    /   O peration     | Version:  5.0                                   |
|   \\  /    A nd           | Web:      www.OpenFOAM.org                      |
|    \\/     M anipulation  |                                                 |
\*---------------------------------------------------------------------------*/
FoamFile
{
    version     2.0;
    format      ascii;
    class       volScalarField;
    location    "0.6";
    object      shearRate;
}
// * * * * * * * * * * * * * * * * * * * * * * * * * * * * * * * * * * * * * //

dimensions      [0 0 -1 0 0 0 0];

internalField   nonuniform List<scalar> 
50
(
1.24227e-14
4.37453e-15
5.42916e-15
2.16888e-14
2.28038e-14
1.03785e-14
2.2412e-14
9.75313e-15
2.19537e-14
2.99063e-15
2.31971e-14
8.66145e-15
9.63088e-15
2.22364e-14
9.58365e-15
5.23355e-15
1.07635e-14
2.39584e-14
6.73474e-15
4.37794e-14
2.27091e-14
2.39871e-14
2.39351e-14
5.59733e-15
2.20702e-14
2.2449e-14
2.28834e-14
8.19743e-15
5.20155e-15
4.96868e-15
3.36564e-15
2.23008e-14
2.30259e-14
4.34723e-14
4.35137e-14
3.86178e-15
1.99597e-15
4.54867e-15
2.23207e-14
2.23292e-14
3.55255e-15
2.8942e-15
5.95673e-15
2.29851e-14
7.35832e-15
4.36089e-14
2.19717e-14
2.27602e-14
4.74723e-15
2.19781e-14
)
;

boundaryField
{
    top
    {
        type            zeroGradient;
    }
    bottom
    {
        type            symmetryPlane;
    }
    inlet
    {
        type            zeroGradient;
    }
    outlet
    {
        type            zeroGradient;
    }
    frontAndBack
    {
        type            empty;
    }
    procBoundary0to1
    {
        type            processor;
        value           nonuniform List<scalar> 10(1.32854e-14 1.08917e-14 1.18895e-14 4.50901e-14 2.60089e-14 2.56998e-14 4.57525e-14 4.41307e-14 2.37069e-14 6.53531e-14);
    }
}


// ************************************************************************* //
