/*--------------------------------*- C++ -*----------------------------------*\
| =========                 |                                                 |
| \\      /  F ield         | OpenFOAM: The Open Source CFD Toolbox           |
|  \\    /   O peration     | Version:  5.0                                   |
|   \\  /    A nd           | Web:      www.OpenFOAM.org                      |
|    \\/     M anipulation  |                                                 |
\*---------------------------------------------------------------------------*/
FoamFile
{
    version     2.0;
    format      ascii;
    class       volScalarField;
    location    "0.6";
    object      shearRate;
}
// * * * * * * * * * * * * * * * * * * * * * * * * * * * * * * * * * * * * * //

dimensions      [0 0 -1 0 0 0 0];

internalField   nonuniform List<scalar> 
200
(
1.52147e-06
1.50448e-06
1.49762e-06
1.49553e-06
1.4953e-06
1.49515e-06
1.49518e-06
1.49515e-06
1.49517e-06
1.49516e-06
4.5487e-06
4.49635e-06
4.48426e-06
4.47842e-06
4.47783e-06
4.47736e-06
4.47749e-06
4.47737e-06
4.47746e-06
4.4774e-06
7.55073e-06
7.46466e-06
7.44599e-06
7.43654e-06
7.43565e-06
7.43486e-06
7.43508e-06
7.43489e-06
7.43503e-06
7.43494e-06
1.05085e-05
1.03909e-05
1.03661e-05
1.03533e-05
1.03522e-05
1.03511e-05
1.03515e-05
1.03512e-05
1.03514e-05
1.03513e-05
1.34044e-05
1.32581e-05
1.32282e-05
1.32126e-05
1.32113e-05
1.321e-05
1.32104e-05
1.321e-05
1.32103e-05
1.32101e-05
1.62213e-05
1.60499e-05
1.60161e-05
1.59981e-05
1.59969e-05
1.59953e-05
1.59959e-05
1.59954e-05
1.59957e-05
1.59955e-05
1.89425e-05
1.87505e-05
1.87143e-05
1.86946e-05
1.86936e-05
1.86916e-05
1.86924e-05
1.86918e-05
1.86922e-05
1.8692e-05
2.15518e-05
2.13446e-05
2.13075e-05
2.12868e-05
2.12862e-05
2.1284e-05
2.12849e-05
2.12842e-05
2.12848e-05
2.12844e-05
2.40338e-05
2.38176e-05
2.37815e-05
2.37605e-05
2.37604e-05
2.37579e-05
2.37591e-05
2.37582e-05
2.37589e-05
2.37585e-05
2.63735e-05
2.61555e-05
2.61223e-05
2.61017e-05
2.61024e-05
2.60997e-05
2.61012e-05
2.61001e-05
2.61009e-05
2.61004e-05
2.8557e-05
2.83453e-05
2.83171e-05
2.82977e-05
2.82993e-05
2.82963e-05
2.82981e-05
2.82968e-05
2.82978e-05
2.82971e-05
3.0571e-05
3.03748e-05
3.03537e-05
3.0336e-05
3.03389e-05
3.03355e-05
3.03377e-05
3.03361e-05
3.03373e-05
3.03365e-05
3.24033e-05
3.22329e-05
3.22209e-05
3.22055e-05
3.22098e-05
3.22059e-05
3.22086e-05
3.22067e-05
3.22081e-05
3.22071e-05
3.40427e-05
3.39094e-05
3.39084e-05
3.38958e-05
3.39016e-05
3.38972e-05
3.39004e-05
3.38981e-05
3.38998e-05
3.38986e-05
3.54789e-05
3.53954e-05
3.54069e-05
3.53973e-05
3.54049e-05
3.53998e-05
3.54037e-05
3.54009e-05
3.5403e-05
3.54015e-05
3.67027e-05
3.66829e-05
3.67084e-05
3.67016e-05
3.67112e-05
3.67053e-05
3.67099e-05
3.67065e-05
3.6709e-05
3.67072e-05
3.77061e-05
3.77653e-05
3.78055e-05
3.78014e-05
3.78131e-05
3.78061e-05
3.78117e-05
3.78076e-05
3.78106e-05
3.78084e-05
3.84822e-05
3.86374e-05
3.86926e-05
3.86905e-05
3.87045e-05
3.86961e-05
3.87027e-05
3.86979e-05
3.87014e-05
3.86988e-05
3.90254e-05
3.92955e-05
3.93654e-05
3.93642e-05
3.93807e-05
3.93706e-05
3.93785e-05
3.93727e-05
3.93769e-05
3.93737e-05
3.93315e-05
3.97377e-05
3.98211e-05
3.98191e-05
3.98384e-05
3.98261e-05
3.98355e-05
3.98286e-05
3.98336e-05
3.98298e-05
)
;

boundaryField
{
    top
    {
        type            zeroGradient;
    }
    bottom
    {
        type            symmetryPlane;
    }
    inlet
    {
        type            zeroGradient;
    }
    outlet
    {
        type            zeroGradient;
    }
    frontAndBack
    {
        type            empty;
    }
    procBoundary0to1
    {
        type            processor;
        value           nonuniform List<scalar> 
20
(
1.49517e-06
4.47744e-06
7.435e-06
1.03514e-05
1.32103e-05
1.59957e-05
1.86922e-05
2.12847e-05
2.37588e-05
2.61008e-05
2.82976e-05
3.03371e-05
3.22079e-05
3.38995e-05
3.54026e-05
3.67085e-05
3.781e-05
3.87007e-05
3.9376e-05
3.98325e-05
)
;
    }
}


// ************************************************************************* //
