/*--------------------------------*- C++ -*----------------------------------*\
| =========                 |                                                 |
| \\      /  F ield         | OpenFOAM: The Open Source CFD Toolbox           |
|  \\    /   O peration     | Version:  5.0                                   |
|   \\  /    A nd           | Web:      www.OpenFOAM.org                      |
|    \\/     M anipulation  |                                                 |
\*---------------------------------------------------------------------------*/
FoamFile
{
    version     2.0;
    format      ascii;
    class       volVectorField;
    location    "0.6";
    object      U;
}
// * * * * * * * * * * * * * * * * * * * * * * * * * * * * * * * * * * * * * //

dimensions      [0 1 -1 0 0 0 0];

internalField   nonuniform List<vector> 
25
(
(1 -1.67254e-09 3.76079e-29)
(1 3.7745e-09 -3.2324e-23)
(1 5.05468e-10 -3.2324e-23)
(1 3.00287e-09 -3.2324e-23)
(1 -2.16457e-10 -2.25809e-29)
(0.920003 -1.57095e-09 -7.11297e-37)
(0.920003 1.01105e-08 2.79794e-23)
(0.920003 3.10441e-09 -8.42801e-29)
(0.920003 9.68832e-09 -2.79794e-23)
(0.920004 1.50133e-09 -2.79794e-23)
(0.760002 6.11631e-09 -2.73701e-23)
(0.760002 1.95707e-08 4.153e-29)
(0.760003 1.47117e-08 2.79794e-23)
(0.760003 1.97105e-08 -5.59588e-23)
(0.760003 7.74175e-09 -5.59589e-23)
(0.520001 1.23026e-08 5.4844e-23)
(0.520002 2.73403e-08 2.79798e-23)
(0.520002 2.57276e-08 -5.59588e-23)
(0.520002 2.52968e-08 -2.79798e-23)
(0.520002 1.1837e-08 5.5959e-23)
(0.2 6.025e-09 3.93807e-23)
(0.200001 1.2597e-08 1.99393e-23)
(0.200001 1.24063e-08 -5.9818e-23)
(0.200001 1.12397e-08 -1.99394e-23)
(0.200001 5.48758e-09 3.98787e-23)
)
;

boundaryField
{
    top
    {
        type            fixedValue;
        value           uniform (0 0 0);
    }
    bottom
    {
        type            symmetryPlane;
    }
    inlet
    {
        type            pressureInletVelocity;
        value           nonuniform List<vector> 5((1 -0 -0) (0.920003 -0 -0) (0.760002 -0 -0) (0.520001 -0 -0) (0.2 -0 -0));
    }
    outlet
    {
        type            inletOutlet;
        inletValue      nonuniform 0();
        value           nonuniform 0();
    }
    frontAndBack
    {
        type            empty;
    }
    procBoundary0to1
    {
        type            processor;
        value           nonuniform List<vector> 5((1 -4.19275e-09 6.46481e-23) (0.920004 -1.23934e-08 -2.79794e-23) (0.760003 -1.53855e-08 2.79793e-23) (0.520002 -1.07735e-08 5.59588e-23) (0.200001 -3.47076e-09 3.98787e-23));
    }
}


// ************************************************************************* //
