/*--------------------------------*- C++ -*----------------------------------*\
| =========                 |                                                 |
| \\      /  F ield         | OpenFOAM: The Open Source CFD Toolbox           |
|  \\    /   O peration     | Version:  5.0                                   |
|   \\  /    A nd           | Web:      www.OpenFOAM.org                      |
|    \\/     M anipulation  |                                                 |
\*---------------------------------------------------------------------------*/
FoamFile
{
    version     2.0;
    format      ascii;
    class       surfaceScalarField;
    location    "0.8";
    object      phi;
}
// * * * * * * * * * * * * * * * * * * * * * * * * * * * * * * * * * * * * * //

dimensions      [0 3 -1 0 0 0 0];

internalField   nonuniform List<scalar> 
85
(
0.00020171
1.05576e-09
0.000201713
-2.45178e-09
0.000201711
1.30311e-09
0.00020175
-3.85444e-08
0.000201897
-1.4656e-07
0.000206799
-4.90296e-06
0.000212076
-5.2762e-06
0.000212744
-6.68742e-07
0.000212812
-6.75918e-08
-3.971e-07
0.000185573
2.70972e-09
0.000185577
-6.0361e-09
0.000185571
6.96111e-09
0.0001856
-6.80396e-08
0.00018555
-9.63033e-08
0.000183486
-2.83864e-06
0.000181442
-3.23256e-06
0.000181314
-5.40312e-07
0.000181364
-1.18139e-07
-2.75088e-07
0.0001533
3.28326e-09
0.000153301
-7.08273e-09
0.000153298
1.03358e-08
0.000153288
-5.85871e-08
0.000153208
-1.63592e-08
0.000151699
-1.32954e-06
0.00015007
-1.60309e-06
0.000149815
-2.85402e-07
0.000149778
-8.13354e-08
-1.47125e-07
0.000104891
2.08774e-09
0.000104888
-4.33919e-09
0.000104891
7.27527e-09
0.000104859
-2.69272e-08
0.000104827
1.57222e-08
0.000103861
-3.63085e-07
0.000102725
-4.66739e-07
0.000102516
-7.6782e-08
0.000102459
-2.41863e-08
-5.08928e-08
4.03438e-05
4.03395e-05
4.03468e-05
4.03198e-05
4.03355e-05
3.99725e-05
3.95057e-05
3.94289e-05
3.94048e-05
)
;

boundaryField
{
    top
    {
        type            calculated;
        value           uniform 0;
    }
    bottom
    {
        type            symmetryPlane;
        value           uniform 0;
    }
    inlet
    {
        type            calculated;
        value           nonuniform List<scalar> 5(-0.000201711 -0.000185575 -0.000153301 -0.00010489 -4.03417e-05);
    }
    outlet
    {
        type            calculated;
        value           nonuniform List<scalar> 5(0.000213209 0.000181242 0.00014965 0.000102363 3.93539e-05);
    }
    frontAndBack
    {
        type            empty;
        value           nonuniform 0();
    }
}


// ************************************************************************* //
