/*--------------------------------*- C++ -*----------------------------------*\
| =========                 |                                                 |
| \\      /  F ield         | OpenFOAM: The Open Source CFD Toolbox           |
|  \\    /   O peration     | Version:  5.0                                   |
|   \\  /    A nd           | Web:      www.OpenFOAM.org                      |
|    \\/     M anipulation  |                                                 |
\*---------------------------------------------------------------------------*/
FoamFile
{
    version     2.0;
    format      ascii;
    class       volScalarField;
    location    "0.8";
    object      shearRate;
}
// * * * * * * * * * * * * * * * * * * * * * * * * * * * * * * * * * * * * * //

dimensions      [0 0 -1 0 0 0 0];

internalField   nonuniform List<scalar> 
400
(
1.87077e-08
1.84988e-08
1.84144e-08
1.83888e-08
1.83859e-08
1.83841e-08
1.83845e-08
1.83841e-08
1.83844e-08
1.83842e-08
1.83843e-08
1.83842e-08
1.83843e-08
1.83842e-08
1.83843e-08
1.83842e-08
1.83843e-08
1.83842e-08
1.83843e-08
1.83843e-08
5.59301e-08
5.52864e-08
5.51377e-08
5.5066e-08
5.50587e-08
5.5053e-08
5.50545e-08
5.50531e-08
5.50541e-08
5.50534e-08
5.50538e-08
5.50535e-08
5.50538e-08
5.50535e-08
5.50537e-08
5.50536e-08
5.50536e-08
5.50536e-08
5.50536e-08
5.50537e-08
9.28425e-08
9.17843e-08
9.15547e-08
9.14386e-08
9.14276e-08
9.14179e-08
9.14206e-08
9.14182e-08
9.142e-08
9.14188e-08
9.14196e-08
9.1419e-08
9.14194e-08
9.1419e-08
9.14193e-08
9.14191e-08
9.14192e-08
9.14191e-08
9.14192e-08
9.14192e-08
1.29211e-07
1.27764e-07
1.2746e-07
1.27303e-07
1.27289e-07
1.27276e-07
1.2728e-07
1.27276e-07
1.27279e-07
1.27277e-07
1.27279e-07
1.27278e-07
1.27278e-07
1.27278e-07
1.27278e-07
1.27278e-07
1.27278e-07
1.27278e-07
1.27278e-07
1.27278e-07
1.64819e-07
1.63019e-07
1.62652e-07
1.6246e-07
1.62445e-07
1.62428e-07
1.62433e-07
1.62428e-07
1.62432e-07
1.6243e-07
1.62431e-07
1.6243e-07
1.62431e-07
1.6243e-07
1.62431e-07
1.6243e-07
1.6243e-07
1.6243e-07
1.6243e-07
1.6243e-07
1.99455e-07
1.97347e-07
1.96932e-07
1.96711e-07
1.96696e-07
1.96675e-07
1.96683e-07
1.96677e-07
1.96681e-07
1.96678e-07
1.96681e-07
1.96679e-07
1.9668e-07
1.96679e-07
1.96679e-07
1.96679e-07
1.96679e-07
1.96679e-07
1.96679e-07
1.96679e-07
2.32914e-07
2.30554e-07
2.30108e-07
2.29865e-07
2.29853e-07
2.29829e-07
2.29839e-07
2.29831e-07
2.29837e-07
2.29833e-07
2.29836e-07
2.29833e-07
2.29835e-07
2.29834e-07
2.29835e-07
2.29834e-07
2.29834e-07
2.29834e-07
2.29834e-07
2.29834e-07
2.64998e-07
2.6245e-07
2.61994e-07
2.61739e-07
2.61731e-07
2.61704e-07
2.61716e-07
2.61707e-07
2.61714e-07
2.6171e-07
2.61713e-07
2.6171e-07
2.61712e-07
2.6171e-07
2.61711e-07
2.6171e-07
2.61711e-07
2.61711e-07
2.61711e-07
2.61711e-07
2.95515e-07
2.92857e-07
2.92413e-07
2.92155e-07
2.92154e-07
2.92123e-07
2.92138e-07
2.92127e-07
2.92135e-07
2.9213e-07
2.92134e-07
2.92131e-07
2.92133e-07
2.92131e-07
2.92132e-07
2.92131e-07
2.92132e-07
2.92131e-07
2.92132e-07
2.92131e-07
3.24284e-07
3.21603e-07
3.21196e-07
3.20943e-07
3.20951e-07
3.20918e-07
3.20936e-07
3.20922e-07
3.20932e-07
3.20926e-07
3.20931e-07
3.20927e-07
3.20929e-07
3.20927e-07
3.20929e-07
3.20927e-07
3.20928e-07
3.20928e-07
3.20928e-07
3.20928e-07
3.51132e-07
3.48529e-07
3.48183e-07
3.47944e-07
3.47964e-07
3.47927e-07
3.47949e-07
3.47933e-07
3.47945e-07
3.47937e-07
3.47943e-07
3.47938e-07
3.47941e-07
3.47938e-07
3.4794e-07
3.47939e-07
3.4794e-07
3.47939e-07
3.47939e-07
3.47939e-07
3.75896e-07
3.73483e-07
3.73225e-07
3.73007e-07
3.73042e-07
3.73e-07
3.73027e-07
3.73008e-07
3.73022e-07
3.73012e-07
3.7302e-07
3.73014e-07
3.73018e-07
3.73015e-07
3.73017e-07
3.73015e-07
3.73016e-07
3.73016e-07
3.73016e-07
3.73016e-07
3.98426e-07
3.9633e-07
3.96183e-07
3.95994e-07
3.96046e-07
3.95999e-07
3.96032e-07
3.96008e-07
3.96026e-07
3.96013e-07
3.96023e-07
3.96015e-07
3.9602e-07
3.96016e-07
3.96019e-07
3.96017e-07
3.96019e-07
3.96018e-07
3.96018e-07
3.96018e-07
4.18584e-07
4.16945e-07
4.16932e-07
4.16777e-07
4.16848e-07
4.16795e-07
4.16834e-07
4.16806e-07
4.16827e-07
4.16812e-07
4.16823e-07
4.16814e-07
4.1682e-07
4.16816e-07
4.16819e-07
4.16817e-07
4.16818e-07
4.16817e-07
4.16818e-07
4.16817e-07
4.36243e-07
4.35216e-07
4.35358e-07
4.35239e-07
4.35333e-07
4.35271e-07
4.35318e-07
4.35284e-07
4.35309e-07
4.35291e-07
4.35304e-07
4.35294e-07
4.35301e-07
4.35296e-07
4.353e-07
4.35297e-07
4.35299e-07
4.35298e-07
4.35298e-07
4.35298e-07
4.5129e-07
4.51047e-07
4.5136e-07
4.51277e-07
4.51395e-07
4.51322e-07
4.51379e-07
4.51338e-07
4.51368e-07
4.51346e-07
4.51362e-07
4.5135e-07
4.51359e-07
4.51352e-07
4.51357e-07
4.51354e-07
4.51356e-07
4.51354e-07
4.51355e-07
4.51355e-07
4.63628e-07
4.64357e-07
4.64851e-07
4.648e-07
4.64944e-07
4.64858e-07
4.64926e-07
4.64876e-07
4.64913e-07
4.64886e-07
4.64906e-07
4.64891e-07
4.64902e-07
4.64894e-07
4.649e-07
4.64896e-07
4.64899e-07
4.64897e-07
4.64898e-07
4.64897e-07
4.73171e-07
4.75079e-07
4.75758e-07
4.75732e-07
4.75905e-07
4.75801e-07
4.75883e-07
4.75823e-07
4.75867e-07
4.75834e-07
4.75858e-07
4.75841e-07
4.75854e-07
4.75845e-07
4.75851e-07
4.75846e-07
4.7585e-07
4.75848e-07
4.75849e-07
4.75849e-07
4.7985e-07
4.83171e-07
4.84031e-07
4.84016e-07
4.84219e-07
4.84095e-07
4.84192e-07
4.8412e-07
4.84173e-07
4.84133e-07
4.84161e-07
4.84142e-07
4.84157e-07
4.84146e-07
4.84154e-07
4.84148e-07
4.84152e-07
4.8415e-07
4.84151e-07
4.84151e-07
4.83614e-07
4.88608e-07
4.89634e-07
4.8961e-07
4.89846e-07
4.89695e-07
4.89811e-07
4.89726e-07
4.89788e-07
4.8974e-07
4.89775e-07
4.89751e-07
4.89769e-07
4.89756e-07
4.89766e-07
4.89759e-07
4.89764e-07
4.89761e-07
4.89763e-07
4.89762e-07
)
;

boundaryField
{
    top
    {
        type            zeroGradient;
    }
    bottom
    {
        type            symmetryPlane;
    }
    inlet
    {
        type            zeroGradient;
    }
    outlet
    {
        type            zeroGradient;
    }
    frontAndBack
    {
        type            empty;
    }
}


// ************************************************************************* //
