/*--------------------------------*- C++ -*----------------------------------*\
| =========                 |                                                 |
| \\      /  F ield         | OpenFOAM: The Open Source CFD Toolbox           |
|  \\    /   O peration     | Version:  5.0                                   |
|   \\  /    A nd           | Web:      www.OpenFOAM.org                      |
|    \\/     M anipulation  |                                                 |
\*---------------------------------------------------------------------------*/
FoamFile
{
    version     2.0;
    format      ascii;
    class       volVectorField;
    location    "0.8";
    object      U;
}
// * * * * * * * * * * * * * * * * * * * * * * * * * * * * * * * * * * * * * //

dimensions      [0 1 -1 0 0 0 0];

internalField   nonuniform List<vector> 
400
(
(2.98876e-08 1.83818e-12 -6.94522e-34)
(2.98065e-08 2.13945e-12 -4.26755e-33)
(2.98041e-08 4.97327e-13 -3.04982e-33)
(2.97899e-08 1.72325e-13 0)
(2.97951e-08 2.44883e-14 0)
(2.97904e-08 9.18602e-15 3.15646e-33)
(2.97937e-08 -1.29136e-15 3.14128e-33)
(2.97913e-08 1.21769e-15 -3.1327e-33)
(2.9793e-08 -1.51744e-15 -3.13341e-33)
(2.97918e-08 4.4426e-16 0)
(2.97927e-08 -3.95441e-17 1.25964e-35)
(2.9792e-08 7.7121e-16 0)
(2.97925e-08 -1.5081e-16 0)
(2.97921e-08 2.55697e-16 0)
(2.97924e-08 -1.50305e-16 0)
(2.97922e-08 1.36198e-16 3.17499e-33)
(2.97923e-08 -1.0004e-16 -1.98891e-36)
(2.97923e-08 9.67799e-17 1.37567e-47)
(2.97923e-08 3.01721e-17 -3.45021e-55)
(2.97923e-08 1.26116e-16 -3.18889e-33)
(2.9705e-08 5.50384e-12 -1.63962e-46)
(2.96259e-08 6.37274e-12 -1.58832e-33)
(2.9624e-08 1.46625e-12 3.7246e-34)
(2.961e-08 5.1699e-13 -2.65545e-33)
(2.96153e-08 6.85193e-14 0)
(2.96106e-08 2.99631e-14 0)
(2.96138e-08 -5.89442e-15 -6.10868e-35)
(2.96114e-08 5.06019e-15 5.4443e-33)
(2.96132e-08 -5.65738e-15 3.39371e-35)
(2.96119e-08 2.11986e-15 -5.40497e-33)
(2.96129e-08 -7.55196e-16 -2.70908e-33)
(2.96122e-08 2.83062e-15 -2.71792e-33)
(2.96127e-08 -6.78156e-16 0)
(2.96123e-08 1.06889e-15 0)
(2.96126e-08 -5.95986e-16 -2.71322e-33)
(2.96124e-08 5.17912e-16 -1.01811e-35)
(2.96125e-08 -3.65905e-16 2.70352e-33)
(2.96124e-08 4.20935e-16 2.70628e-33)
(2.96125e-08 -2.20822e-17 -2.54528e-36)
(2.96124e-08 4.18852e-16 -2.71855e-33)
(2.93406e-08 9.0457e-12 -7.72616e-34)
(2.92658e-08 1.04069e-11 1.36376e-32)
(2.92648e-08 2.3691e-12 2.76686e-33)
(2.92512e-08 8.5263e-13 -2.67995e-33)
(2.92565e-08 1.02444e-13 -2.725e-33)
(2.92519e-08 5.47568e-14 1.52717e-35)
(2.92551e-08 -1.41668e-14 -7.63585e-36)
(2.92527e-08 1.15622e-14 2.70773e-33)
(2.92545e-08 -1.16686e-14 1.69685e-36)
(2.92532e-08 5.13656e-15 -2.69994e-33)
(2.92542e-08 -2.51144e-15 2.70908e-33)
(2.92534e-08 5.59767e-15 8.48427e-37)
(2.92539e-08 -1.78189e-15 -2.70792e-33)
(2.92536e-08 2.29513e-15 -2.70278e-33)
(2.92538e-08 -1.37324e-15 5.41457e-33)
(2.92537e-08 1.14287e-15 2.70424e-33)
(2.92538e-08 -8.26278e-16 -5.41382e-33)
(2.92537e-08 8.84219e-16 1.69685e-36)
(2.92537e-08 -1.51689e-16 -9.01471e-45)
(2.92537e-08 8.61683e-16 1.70436e-36)
(2.87968e-08 1.23258e-11 -8.38224e-33)
(2.87281e-08 1.41198e-11 2.0966e-32)
(2.87284e-08 3.18421e-12 -5.52615e-33)
(2.87155e-08 1.15866e-12 -3.66063e-33)
(2.87209e-08 1.30089e-13 2.72481e-33)
(2.87163e-08 7.86326e-14 2.74383e-33)
(2.87195e-08 -2.28926e-14 2.68568e-33)
(2.87171e-08 1.83293e-14 2.29075e-35)
(2.87189e-08 -1.79129e-14 -2.71177e-33)
(2.87176e-08 8.25979e-15 2.71351e-33)
(2.87186e-08 -4.43876e-15 2.69041e-33)
(2.87179e-08 8.46825e-15 -5.93899e-36)
(2.87184e-08 -2.99259e-15 -8.48427e-36)
(2.8718e-08 3.51027e-15 4.24214e-36)
(2.87183e-08 -2.20118e-15 -5.09056e-36)
(2.87181e-08 1.79127e-15 -8.48427e-37)
(2.87182e-08 -1.29912e-15 2.70521e-33)
(2.87181e-08 1.34697e-15 -2.70288e-33)
(2.87182e-08 -2.87832e-16 -1.69685e-36)
(2.87181e-08 1.34933e-15 5.44221e-33)
(2.80766e-08 1.52466e-11 2.61082e-32)
(2.8016e-08 1.74043e-11 -1.99897e-32)
(2.80179e-08 3.88579e-12 -8.2746e-33)
(2.80059e-08 1.42264e-12 -1.50889e-33)
(2.80113e-08 1.51379e-13 5.3558e-33)
(2.80068e-08 9.99143e-14 2.69295e-33)
(2.801e-08 -3.13473e-14 0)
(2.80076e-08 2.46701e-14 -2.54528e-35)
(2.80094e-08 -2.37457e-14 0)
(2.80081e-08 1.12013e-14 5.40498e-33)
(2.80091e-08 -6.21631e-15 -1.01811e-35)
(2.80084e-08 1.11492e-14 -5.93899e-36)
(2.80089e-08 -4.22599e-15 2.70792e-33)
(2.80085e-08 4.64629e-15 -1.34924e-47)
(2.80088e-08 -3.01504e-15 3.39371e-36)
(2.80086e-08 2.41631e-15 -2.70424e-33)
(2.80087e-08 -1.72367e-15 2.70691e-33)
(2.80086e-08 1.7683e-15 2.70543e-33)
(2.80087e-08 -4.18028e-16 -2.54528e-36)
(2.80086e-08 1.78607e-15 -1.70436e-36)
(2.71845e-08 1.77233e-11 -1.54341e-33)
(2.71334e-08 2.01582e-11 -2.90801e-32)
(2.71372e-08 4.44791e-12 5.36214e-33)
(2.71263e-08 1.63613e-12 6.60076e-34)
(2.71318e-08 1.64757e-13 -2.72428e-33)
(2.71274e-08 1.18354e-13 -6.87226e-35)
(2.71305e-08 -3.95105e-14 9.16301e-35)
(2.71282e-08 3.06514e-14 -5.59962e-35)
(2.71299e-08 -2.91694e-14 0)
(2.71287e-08 1.4011e-14 2.68722e-33)
(2.71296e-08 -7.98502e-15 -2.67344e-33)
(2.71289e-08 1.36951e-14 -2.69756e-33)
(2.71294e-08 -5.35144e-15 2.72149e-33)
(2.7129e-08 5.71509e-15 -2.70024e-33)
(2.71293e-08 -3.77611e-15 2.72e-33)
(2.71291e-08 2.96677e-15 2.70509e-33)
(2.71292e-08 -2.12523e-15 -2.70776e-33)
(2.71291e-08 2.13715e-15 1.69685e-36)
(2.71292e-08 -5.08591e-16 -2.70318e-33)
(2.71292e-08 2.21891e-15 -2.7177e-33)
(2.61255e-08 1.9681e-11 -1.02575e-46)
(2.60854e-08 2.22934e-11 1.47083e-32)
(2.60914e-08 4.85036e-12 -7.63585e-35)
(2.60816e-08 1.79249e-12 -1.42196e-33)
(2.60871e-08 1.69156e-13 1.36597e-34)
(2.60828e-08 1.33681e-13 -2.69302e-33)
(2.6086e-08 -4.73292e-14 -2.61097e-33)
(2.60837e-08 3.63377e-14 5.36548e-33)
(2.60853e-08 -3.41494e-14 2.73381e-33)
(2.60841e-08 1.66973e-14 -5.40499e-33)
(2.6085e-08 -9.72345e-15 2.75234e-33)
(2.60844e-08 1.60214e-14 2.71199e-33)
(2.60848e-08 -6.48431e-15 2.71555e-33)
(2.60845e-08 6.6733e-15 -2.71042e-33)
(2.60847e-08 -4.45898e-15 -5.41455e-33)
(2.60846e-08 3.48843e-15 8.11782e-33)
(2.60847e-08 -2.5785e-15 3.6088e-44)
(2.60846e-08 2.51284e-15 -2.70627e-33)
(2.60846e-08 -5.77954e-16 2.70997e-33)
(2.60846e-08 2.64965e-15 -1.70436e-36)
(2.4906e-08 2.1057e-11 1.6566e-32)
(2.4878e-08 2.37397e-11 1.04707e-32)
(2.48862e-08 5.07986e-12 -2.73834e-33)
(2.48776e-08 1.88728e-12 1.46439e-33)
(2.48832e-08 1.64233e-13 2.72365e-33)
(2.48791e-08 1.45584e-13 -2.60567e-33)
(2.48821e-08 -5.47783e-14 -2.77638e-33)
(2.48799e-08 4.16227e-14 2.81893e-33)
(2.48815e-08 -3.8622e-14 2.73634e-33)
(2.48803e-08 1.92175e-14 2.20591e-35)
(2.48812e-08 -1.14624e-14 2.65815e-33)
(2.48805e-08 1.80815e-14 2.71284e-33)
(2.4881e-08 -7.59391e-15 -2.72827e-33)
(2.48807e-08 7.54939e-15 -1.01811e-35)
(2.48809e-08 -5.09774e-15 2.69709e-33)
(2.48807e-08 4.00235e-15 2.70933e-33)
(2.48809e-08 -2.98456e-15 2.40422e-44)
(2.48808e-08 2.8835e-15 -2.70712e-33)
(2.48808e-08 -6.5958e-16 2.71082e-33)
(2.48808e-08 3.01611e-15 5.4354e-33)
(2.35332e-08 2.18046e-11 -1.80919e-32)
(2.3518e-08 2.44481e-11 -1.89129e-32)
(2.35285e-08 5.13032e-12 2.73063e-33)
(2.35211e-08 1.91849e-12 7.17769e-34)
(2.35268e-08 1.50352e-13 -2.72333e-33)
(2.35227e-08 1.53968e-13 -9.58723e-35)
(2.35257e-08 -6.16962e-14 2.64825e-33)
(2.35235e-08 4.63575e-14 -4.58151e-35)
(2.35251e-08 -4.24966e-14 -2.71173e-33)
(2.3524e-08 2.15412e-14 5.40501e-33)
(2.35248e-08 -1.31337e-14 2.70905e-33)
(2.35242e-08 1.98551e-14 -1.10296e-35)
(2.35247e-08 -8.58991e-15 -5.41582e-33)
(2.35243e-08 8.34287e-15 -2.69346e-33)
(2.35246e-08 -5.67096e-15 5.41963e-33)
(2.35244e-08 4.44734e-15 2.70255e-33)
(2.35245e-08 -3.33852e-15 -2.70182e-33)
(2.35244e-08 3.21298e-15 -5.41255e-33)
(2.35245e-08 -7.38501e-16 2.70149e-33)
(2.35244e-08 3.31528e-15 5.44053e-33)
(2.20151e-08 2.18962e-11 -1.90447e-32)
(2.20132e-08 2.4394e-11 -1.88603e-32)
(2.20257e-08 5.00369e-12 2.72278e-33)
(2.20196e-08 1.88696e-12 2.98471e-45)
(2.20253e-08 1.28391e-13 -2.94447e-33)
(2.20214e-08 1.58675e-13 -5.98009e-45)
(2.20243e-08 -6.78831e-14 -2.86881e-33)
(2.20221e-08 5.03979e-14 -5.00572e-35)
(2.20237e-08 -4.56629e-14 5.3912e-33)
(2.20226e-08 2.36162e-14 -2.67536e-33)
(2.20234e-08 -1.47193e-14 -2.68614e-33)
(2.20228e-08 2.12051e-14 2.70437e-33)
(2.20232e-08 -9.4491e-15 5.42684e-33)
(2.20229e-08 9.03823e-15 -2.70534e-33)
(2.20232e-08 -6.11498e-15 -5.41454e-33)
(2.2023e-08 4.79469e-15 2.70594e-33)
(2.20231e-08 -3.60275e-15 -7.18232e-50)
(2.2023e-08 3.49576e-15 2.70712e-33)
(2.20231e-08 -8.17289e-16 2.70658e-33)
(2.2023e-08 3.60219e-15 1.20728e-44)
(2.03609e-08 2.13255e-11 -1.78301e-32)
(2.03719e-08 2.35799e-11 0)
(2.03864e-08 4.71009e-12 4.76495e-33)
(2.03815e-08 1.79641e-12 3.26239e-33)
(2.03871e-08 9.98382e-14 -2.72276e-33)
(2.03833e-08 1.59762e-13 2.80017e-33)
(2.03862e-08 -7.30498e-14 -8.31459e-35)
(2.03841e-08 5.37145e-14 -2.58737e-33)
(2.03856e-08 -4.79637e-14 2.67607e-33)
(2.03845e-08 2.54013e-14 2.99386e-45)
(2.03853e-08 -1.61995e-14 -8.1449e-35)
(2.03847e-08 2.20908e-14 -7.20584e-44)
(2.03852e-08 -1.01957e-14 -5.42684e-33)
(2.03848e-08 9.55052e-15 -7.63585e-36)
(2.03851e-08 -6.5368e-15 5.40945e-33)
(2.03849e-08 5.10957e-15 2.71103e-33)
(2.0385e-08 -3.7845e-15 -1.20211e-44)
(2.0385e-08 3.69496e-15 -5.4117e-33)
(2.0385e-08 -9.19809e-16 1.20454e-44)
(2.0385e-08 3.83075e-15 5.43713e-33)
(1.85802e-08 2.01108e-11 1.66973e-32)
(1.86037e-08 2.20391e-11 2.60365e-33)
(1.86196e-08 4.26805e-12 5.41559e-33)
(1.86159e-08 1.65318e-12 -2.67979e-33)
(1.86213e-08 6.67333e-14 -2.44342e-33)
(1.86178e-08 1.57324e-13 2.58306e-33)
(1.86205e-08 -7.689e-14 1.7817e-34)
(1.86185e-08 5.61267e-14 -6.27836e-35)
(1.862e-08 -4.92516e-14 3.81792e-35)
(1.86189e-08 2.67809e-14 2.66943e-33)
(1.86197e-08 -1.74058e-14 -2.67933e-33)
(1.86191e-08 2.25508e-14 -2.71711e-33)
(1.86195e-08 -1.08389e-14 2.72063e-33)
(1.86192e-08 9.88942e-15 -2.68838e-33)
(1.86194e-08 -6.8513e-15 6.78742e-36)
(1.86193e-08 5.33022e-15 -6.78742e-36)
(1.86194e-08 -3.93124e-15 1.17111e-47)
(1.86193e-08 3.84024e-15 2.70288e-33)
(1.86194e-08 -1.06449e-15 -2.71167e-33)
(1.86193e-08 3.87756e-15 -2.71686e-33)
(1.66837e-08 1.82978e-11 -7.67046e-34)
(1.67184e-08 1.98382e-11 -2.59506e-33)
(1.67353e-08 3.70448e-12 6.74658e-33)
(1.67326e-08 1.46618e-12 -3.12221e-34)
(1.67378e-08 3.1545e-14 -5.44482e-33)
(1.67345e-08 1.51471e-13 -1.13689e-34)
(1.6737e-08 -7.91085e-14 1.93441e-34)
(1.67352e-08 5.73985e-14 -6.9571e-35)
(1.67365e-08 -4.95272e-14 2.75495e-33)
(1.67355e-08 2.76619e-14 -5.86031e-48)
(1.67363e-08 -1.82761e-14 6.10868e-35)
(1.67357e-08 2.24953e-14 1.61201e-35)
(1.67361e-08 -1.12862e-14 2.72232e-33)
(1.67358e-08 1.00614e-14 1.10296e-35)
(1.67361e-08 -7.00758e-15 -2.70727e-33)
(1.67359e-08 5.43082e-15 5.40425e-33)
(1.6736e-08 -4.06295e-15 -2.71369e-33)
(1.67359e-08 3.87764e-15 -2.70882e-33)
(1.6736e-08 -1.24638e-15 2.70657e-33)
(1.6736e-08 3.82604e-15 -1.20729e-44)
(1.46826e-08 1.59638e-11 1.21427e-32)
(1.47266e-08 1.70813e-11 0)
(1.4744e-08 3.05434e-12 2.69605e-33)
(1.47421e-08 1.24663e-12 -2.63012e-34)
(1.4747e-08 -2.79993e-15 -2.72235e-33)
(1.47439e-08 1.42306e-13 -2.57733e-33)
(1.47463e-08 -7.92498e-14 -6.0428e-45)
(1.47446e-08 5.72207e-14 2.77325e-33)
(1.47458e-08 -4.85803e-14 2.6616e-33)
(1.47449e-08 2.7943e-14 5.85996e-48)
(1.47456e-08 -1.87317e-14 -5.87413e-48)
(1.47451e-08 2.17702e-14 -3.39371e-35)
(1.47455e-08 -1.14627e-14 2.69178e-33)
(1.47452e-08 9.94013e-15 -3.56339e-35)
(1.47454e-08 -7.02211e-15 -5.42301e-33)
(1.47452e-08 5.3929e-15 5.40426e-33)
(1.47453e-08 -4.09857e-15 1.01811e-35)
(1.47453e-08 3.7627e-15 -2.70457e-33)
(1.47453e-08 -1.4047e-15 5.93899e-36)
(1.47453e-08 3.69097e-15 -2.71858e-33)
(1.25889e-08 1.32201e-11 7.15439e-33)
(1.26396e-08 1.39122e-11 2.64328e-34)
(1.26567e-08 2.35964e-12 0)
(1.26555e-08 1.00767e-12 3.67358e-49)
(1.266e-08 -3.31341e-14 3.08043e-33)
(1.26572e-08 1.29903e-13 -6.33689e-50)
(1.26594e-08 -7.68029e-14 -3.03833e-45)
(1.26578e-08 5.5339e-14 2.69947e-33)
(1.26589e-08 -4.60956e-14 2.89294e-49)
(1.26581e-08 2.74007e-14 -2.70254e-33)
(1.26587e-08 -1.86568e-14 -5.41799e-33)
(1.26583e-08 2.03902e-14 2.68659e-33)
(1.26586e-08 -1.12729e-14 -1.19515e-44)
(1.26583e-08 9.52002e-15 -3.6067e-44)
(1.26585e-08 -6.79217e-15 2.70726e-33)
(1.26584e-08 5.16297e-15 -2.70595e-33)
(1.26585e-08 -3.97206e-15 2.71707e-33)
(1.26584e-08 3.54574e-15 -1.20182e-44)
(1.26585e-08 -1.47552e-15 1.20313e-44)
(1.26585e-08 3.4322e-15 2.71858e-33)
(1.04151e-08 1.02138e-11 -4.47863e-33)
(1.04691e-08 1.05146e-11 -2.57649e-33)
(1.04851e-08 1.66779e-12 2.356e-48)
(1.04844e-08 7.63358e-13 -3.21209e-33)
(1.04884e-08 -5.61573e-14 -2.72254e-33)
(1.04859e-08 1.14205e-13 -1.28961e-34)
(1.04878e-08 -7.13863e-14 3.00354e-45)
(1.04864e-08 5.14491e-14 2.61296e-33)
(1.04874e-08 -4.18802e-14 2.76762e-33)
(1.04867e-08 2.58649e-14 -5.86035e-48)
(1.04872e-08 -1.78547e-14 -2.74716e-33)
(1.04868e-08 1.82706e-14 2.03623e-35)
(1.04871e-08 -1.06526e-14 5.4353e-33)
(1.04869e-08 8.72913e-15 2.71497e-35)
(1.04871e-08 -6.29041e-15 -5.40688e-33)
(1.0487e-08 4.74673e-15 0)
(1.0487e-08 -3.69258e-15 -5.09056e-36)
(1.0487e-08 3.23508e-15 2.70372e-33)
(1.0487e-08 -1.53428e-15 -5.09056e-36)
(1.0487e-08 3.06073e-15 -2.71858e-33)
(8.17417e-09 7.12585e-12 -7.62645e-34)
(8.22727e-09 7.11127e-12 -2.57393e-33)
(8.24126e-09 1.02949e-12 2.12431e-33)
(8.24085e-09 5.27645e-13 4.6918e-34)
(8.24423e-09 -6.82429e-14 -5.86215e-33)
(8.24215e-09 9.46851e-14 0)
(8.24377e-09 -6.22593e-14 -1.349e-34)
(8.24258e-09 4.49355e-14 9.9266e-35)
(8.24345e-09 -3.57541e-14 2.7116e-33)
(8.24279e-09 2.28863e-14 2.70256e-33)
(8.24327e-09 -1.60439e-14 -2.70897e-33)
(8.24293e-09 1.53576e-14 -2.68152e-33)
(8.24319e-09 -9.39687e-15 2.68668e-33)
(8.24301e-09 7.52821e-15 -1.52717e-35)
(8.24314e-09 -5.49598e-15 -2.71829e-33)
(8.24304e-09 4.10449e-15 2.71444e-33)
(8.24311e-09 -3.19787e-15 6.02231e-45)
(8.24307e-09 2.79507e-15 4.24214e-36)
(8.2431e-09 -1.53121e-15 2.7142e-33)
(8.24309e-09 2.49628e-15 -6.03646e-45)
(5.87966e-09 4.19959e-12 0)
(5.92658e-09 3.99568e-12 -1.34408e-32)
(5.93769e-09 5.01978e-13 -2.69499e-33)
(5.93746e-09 3.14349e-13 -1.10744e-33)
(5.94007e-09 -6.5393e-14 0)
(5.93844e-09 7.02618e-14 0)
(5.9397e-09 -4.81759e-14 2.84487e-33)
(5.93877e-09 3.49114e-14 6.01179e-45)
(5.93945e-09 -2.71316e-14 -5.29166e-48)
(5.93894e-09 1.80431e-14 2.34407e-47)
(5.93931e-09 -1.28115e-14 -1.20061e-44)
(5.93905e-09 1.14156e-14 2.7248e-33)
(5.93925e-09 -7.39687e-15 -1.20253e-44)
(5.93911e-09 5.82208e-15 0)
(5.93921e-09 -4.30456e-15 1.6484e-51)
(5.93914e-09 3.20712e-15 -2.70595e-33)
(5.93919e-09 -2.47857e-15 -5.09056e-36)
(5.93915e-09 2.15885e-15 -6.00915e-45)
(5.93918e-09 -1.37086e-15 -2.70656e-33)
(5.93917e-09 1.77915e-15 -6.03647e-45)
(3.5454e-09 1.82206e-12 0)
(3.57983e-09 1.6005e-12 4.20381e-32)
(3.58716e-09 1.51789e-13 -2.70379e-33)
(3.58701e-09 1.42301e-13 -2.56395e-33)
(3.58871e-09 -4.54275e-14 0)
(3.58763e-09 4.09483e-14 -2.69084e-33)
(3.58846e-09 -2.90322e-14 -1.17741e-47)
(3.58785e-09 2.10797e-14 2.6996e-33)
(3.5883e-09 -1.60917e-14 2.71156e-33)
(3.58796e-09 1.10097e-14 2.70257e-33)
(3.5882e-09 -7.91044e-15 -1.69685e-35)
(3.58803e-09 6.68423e-15 -2.70445e-33)
(3.58816e-09 -4.50242e-15 -1.20255e-44)
(3.58807e-09 3.47421e-15 1.23193e-47)
(3.58814e-09 -2.56425e-15 -2.70725e-33)
(3.58809e-09 1.95872e-15 5.40767e-33)
(3.58812e-09 -1.46574e-15 -5.98701e-45)
(3.5881e-09 1.28901e-15 -2.70796e-33)
(3.58811e-09 -9.19466e-16 2.69977e-33)
(3.58811e-09 9.90525e-16 -3.40873e-36)
(1.18554e-09 4.6732e-13 -1.05518e-33)
(1.19997e-09 3.81439e-13 1.20425e-32)
(1.20267e-09 2.53677e-14 4.59851e-33)
(1.20258e-09 3.82232e-14 -2.59051e-33)
(1.2032e-09 -1.5418e-14 -1.89128e-33)
(1.2028e-09 1.28586e-14 -2.51294e-35)
(1.20311e-09 -9.25563e-15 1.2172e-35)
(1.20288e-09 6.75702e-15 -8.24557e-36)
(1.20304e-09 -5.09808e-15 1.63267e-47)
(1.20292e-09 3.55895e-15 1.87609e-33)
(1.20301e-09 -2.5643e-15 0)
(1.20295e-09 2.09036e-15 0)
(1.20299e-09 -1.46329e-15 1.57059e-36)
(1.20296e-09 1.10149e-15 0)
(1.20299e-09 -8.16702e-16 -1.87817e-33)
(1.20297e-09 6.20025e-16 1.87845e-33)
(1.20298e-09 -4.75531e-16 -1.87909e-33)
(1.20297e-09 4.08579e-16 -1.87787e-33)
(1.20298e-09 -3.13225e-16 3.75773e-33)
(1.20298e-09 3.14731e-16 0)
)
;

boundaryField
{
    top
    {
        type            fixedValue;
        value           uniform (0 0 0);
    }
    bottom
    {
        type            symmetryPlane;
    }
    inlet
    {
        type            pressureInletVelocity;
        value           nonuniform List<vector> 
20
(
(2.98856e-08 0 0)
(2.97032e-08 0 0)
(2.93388e-08 0 0)
(2.8795e-08 0 0)
(2.80749e-08 0 0)
(2.71827e-08 0 0)
(2.61237e-08 0 0)
(2.49042e-08 0 0)
(2.35314e-08 0 0)
(2.20134e-08 0 0)
(2.03591e-08 0 0)
(1.85784e-08 0 0)
(1.66819e-08 0 0)
(1.46808e-08 0 0)
(1.25871e-08 0 0)
(1.04133e-08 0 0)
(8.17241e-09 0 0)
(5.8779e-09 0 0)
(3.54365e-09 0 0)
(1.18433e-09 0 0)
)
;
    }
    outlet
    {
        type            inletOutlet;
        inletValue      uniform (1 0 0);
        value           nonuniform List<vector> 
20
(
(2.97923e-08 1.26116e-16 -3.18889e-33)
(2.96124e-08 4.18852e-16 -2.71855e-33)
(2.92537e-08 8.61683e-16 1.70436e-36)
(2.87181e-08 1.34933e-15 5.44221e-33)
(2.80086e-08 1.78607e-15 -1.70436e-36)
(2.71292e-08 2.21891e-15 -2.7177e-33)
(2.60846e-08 2.64965e-15 -1.70436e-36)
(2.48808e-08 3.01611e-15 5.4354e-33)
(2.35244e-08 3.31528e-15 5.44053e-33)
(2.2023e-08 3.60219e-15 1.20728e-44)
(2.0385e-08 3.83075e-15 5.43713e-33)
(1.86193e-08 3.87756e-15 -2.71686e-33)
(1.6736e-08 3.82604e-15 -1.20729e-44)
(1.47453e-08 3.69097e-15 -2.71858e-33)
(1.26585e-08 3.4322e-15 2.71858e-33)
(1.0487e-08 3.06073e-15 -2.71858e-33)
(8.24309e-09 2.49628e-15 -6.03646e-45)
(5.93917e-09 1.77915e-15 -6.03647e-45)
(3.58811e-09 9.90525e-16 -3.40873e-36)
(1.20298e-09 3.14731e-16 0)
)
;
    }
    frontAndBack
    {
        type            empty;
    }
}


// ************************************************************************* //
