/*--------------------------------*- C++ -*----------------------------------*\
| =========                 |                                                 |
| \\      /  F ield         | OpenFOAM: The Open Source CFD Toolbox           |
|  \\    /   O peration     | Version:  5.0                                   |
|   \\  /    A nd           | Web:      www.OpenFOAM.org                      |
|    \\/     M anipulation  |                                                 |
\*---------------------------------------------------------------------------*/
FoamFile
{
    version     2.0;
    format      ascii;
    class       surfaceScalarField;
    location    "474";
    object      phi;
}
// * * * * * * * * * * * * * * * * * * * * * * * * * * * * * * * * * * * * * //

dimensions      [0 3 -1 0 0 0 0];

internalField   nonuniform List<scalar> 
3052
(
1.23866e-25
-1.34981e-25
4.32222e-25
-3.0811e-25
8.95155e-25
-4.63205e-25
1.4761e-24
-5.81354e-25
2.15456e-24
-6.78842e-25
2.91461e-24
-7.60373e-25
3.73833e-24
-8.23998e-25
4.61118e-24
-8.73083e-25
5.5202e-24
-9.09237e-25
6.45286e-24
-9.3285e-25
7.39748e-24
-9.44796e-25
8.34344e-24
-9.46127e-25
9.28086e-24
-9.37577e-25
1.02004e-23
-9.19683e-25
1.10935e-23
-8.93195e-25
1.19521e-23
-8.58788e-25
1.27691e-23
-8.17035e-25
1.35375e-23
-7.68573e-25
1.42515e-23
-7.14007e-25
1.49053e-23
-6.53966e-25
1.54943e-23
-5.89024e-25
1.6014e-23
-5.19779e-25
1.64609e-23
-4.46872e-25
1.683e-23
-3.69221e-25
1.71215e-23
-2.91526e-25
1.7335e-23
-2.13455e-25
1.74646e-23
-1.29635e-25
1.75078e-23
-4.3181e-26
1.74657e-23
4.20686e-26
1.73373e-23
1.28514e-25
1.71249e-23
2.12417e-25
1.68344e-23
2.90523e-25
1.64663e-23
3.68233e-25
1.60204e-23
4.45939e-25
1.55016e-23
5.18882e-25
1.49135e-23
5.88162e-25
1.42604e-23
6.53221e-25
1.35472e-23
7.13299e-25
1.27794e-23
7.67968e-25
1.1963e-23
8.16526e-25
1.11048e-23
8.58363e-25
1.02121e-23
8.92841e-25
9.29276e-24
9.19452e-25
8.35551e-24
9.37415e-25
7.40954e-24
9.46133e-25
6.46486e-24
9.44865e-25
5.53216e-24
9.32881e-25
4.62301e-24
9.09354e-25
3.74973e-24
8.73483e-25
2.92581e-24
8.24127e-25
2.16599e-24
7.60041e-25
1.48647e-24
6.79732e-25
9.04742e-25
5.81958e-25
4.42197e-25
4.62775e-25
1.32311e-25
3.10095e-25
1.32338e-25
1.10515e-25
-2.45151e-25
3.91419e-25
-5.89617e-25
8.08026e-25
-8.80962e-25
1.34207e-24
-1.11664e-24
1.97169e-24
-1.30959e-24
2.67635e-24
-1.46599e-24
3.44195e-24
-1.59043e-24
4.25459e-24
-1.68645e-24
5.10084e-24
-1.75615e-24
5.96909e-24
-1.80171e-24
6.84874e-24
-1.825e-24
7.72965e-24
-1.82755e-24
8.60239e-24
-1.81079e-24
9.4584e-24
-1.77613e-24
1.02897e-23
-1.72491e-24
1.10889e-23
-1.65831e-24
1.18491e-23
-1.57758e-24
1.25641e-23
-1.4839e-24
1.32283e-23
-1.37843e-24
1.38364e-23
-1.2623e-24
1.43838e-23
-1.13666e-24
1.48665e-23
-1.00266e-24
1.52809e-23
-8.61406e-25
1.56256e-23
-7.14021e-25
1.58987e-23
-5.64675e-25
1.60967e-23
-4.11434e-25
1.62176e-23
-2.50584e-25
1.62589e-23
-8.43846e-26
1.62187e-23
8.23387e-26
1.60987e-23
2.48605e-25
1.59017e-23
4.09572e-25
1.56296e-23
5.62871e-25
1.52858e-23
7.12237e-25
1.48723e-23
8.59694e-25
1.43904e-23
1.00106e-24
1.38437e-23
1.13516e-24
1.32363e-23
1.26094e-24
1.25728e-23
1.37719e-24
1.18583e-23
1.48283e-24
1.10986e-23
1.57666e-24
1.02998e-23
1.65758e-24
9.46881e-24
1.72434e-24
8.61299e-24
1.77578e-24
7.74034e-24
1.81059e-24
6.85951e-24
1.82753e-24
5.97979e-24
1.82517e-24
5.11122e-24
1.80206e-24
4.2646e-24
1.7566e-24
3.45174e-24
1.68701e-24
2.68537e-24
1.59119e-24
1.97929e-24
1.46682e-24
1.3492e-24
1.31054e-24
8.13738e-25
1.11813e-24
3.94271e-25
8.82925e-25
1.11984e-25
5.93005e-25
2.44356e-25
8.84782e-26
-3.33773e-25
3.35538e-25
-8.37203e-25
7.13541e-25
-1.25986e-24
1.2014e-24
-1.60551e-24
1.77859e-24
-1.88775e-24
2.42896e-24
-2.11723e-24
3.13694e-24
-2.29917e-24
3.88875e-24
-2.43895e-24
4.67246e-24
-2.54048e-24
5.47698e-24
-2.60679e-24
6.29199e-24
-2.64053e-24
7.10808e-24
-2.64412e-24
7.91667e-24
-2.61981e-24
8.70967e-24
-2.56954e-24
9.47962e-24
-2.49522e-24
1.02197e-23
-2.39872e-24
1.09236e-23
-2.2818e-24
1.15856e-23
-2.14614e-24
1.22004e-23
-1.99346e-24
1.27633e-23
-1.8254e-24
1.32701e-23
-1.64364e-24
1.37171e-23
-1.44981e-24
1.41012e-23
-1.24568e-24
1.44204e-23
-1.03329e-24
1.46709e-23
-8.15186e-25
1.48502e-23
-5.90719e-25
1.49583e-23
-3.58687e-25
1.4995e-23
-1.21011e-25
1.49591e-23
1.1826e-25
1.48518e-23
3.55985e-25
1.46734e-23
5.88115e-25
1.44238e-23
8.1268e-25
1.41054e-23
1.03087e-24
1.37219e-23
1.24336e-24
1.32756e-23
1.44761e-24
1.27695e-23
1.64159e-24
1.22072e-23
1.82354e-24
1.15929e-23
1.99179e-24
1.09314e-23
2.14469e-24
1.02279e-23
2.28058e-24
9.48814e-24
2.39775e-24
8.71842e-24
2.4945e-24
7.92559e-24
2.56907e-24
7.11704e-24
2.61963e-24
6.30086e-24
2.64423e-24
5.48568e-24
2.64089e-24
4.68092e-24
2.60739e-24
3.89678e-24
2.54133e-24
3.1443e-24
2.44011e-24
2.43554e-24
2.30058e-24
1.78425e-24
2.11875e-24
1.20544e-24
1.88999e-24
7.1633e-25
1.60789e-24
3.3703e-25
1.26295e-24
9.06466e-26
8.39848e-25
3.35034e-25
7.72742e-26
-4.11035e-25
2.93217e-25
-1.05362e-24
6.30415e-25
-1.59778e-24
1.07046e-24
-2.04638e-24
1.59581e-24
-2.41392e-24
2.1894e-24
-2.71157e-24
2.83756e-24
-2.948e-24
3.52748e-24
-3.12947e-24
4.24744e-24
-3.26099e-24
4.98696e-24
-3.34681e-24
5.73654e-24
-3.39057e-24
6.48735e-24
-3.39535e-24
7.23121e-24
-3.36406e-24
7.96072e-24
-3.2994e-24
8.66901e-24
-3.20383e-24
9.34976e-24
-3.07975e-24
9.99714e-24
-2.92944e-24
1.06059e-23
-2.75512e-24
1.11712e-23
-2.55896e-24
1.16887e-23
-2.34312e-24
1.21547e-23
-2.10972e-24
1.25657e-23
-1.86092e-24
1.29188e-23
-1.59888e-24
1.32113e-23
-1.32588e-24
1.34401e-23
-1.04404e-24
1.36035e-23
-7.54113e-25
1.37015e-23
-4.56616e-25
1.37344e-23
-1.53871e-25
1.37021e-23
1.50565e-25
1.36048e-23
4.53376e-25
1.34421e-23
7.50967e-25
1.32139e-23
1.041e-24
1.2922e-23
1.32293e-24
1.25695e-23
1.59609e-24
1.21591e-23
1.85828e-24
1.16936e-23
2.10729e-24
1.11765e-23
2.34089e-24
1.06116e-23
2.55698e-24
1.00033e-23
2.75339e-24
9.35618e-24
2.928e-24
8.67568e-24
3.07862e-24
7.96754e-24
3.20304e-24
7.2381e-24
3.29892e-24
6.49423e-24
3.36394e-24
5.74336e-24
3.39557e-24
4.99359e-24
3.39113e-24
4.25373e-24
3.34777e-24
3.53326e-24
3.26233e-24
2.84278e-24
3.13113e-24
2.19393e-24
2.94999e-24
1.59919e-24
2.71406e-24
1.07288e-24
2.41689e-24
6.31812e-25
2.04953e-24
2.93845e-25
1.60143e-24
7.7754e-26
1.05648e-24
4.12815e-25
6.74342e-26
-4.7861e-25
2.56305e-25
-1.2429e-24
5.56059e-25
-1.89809e-24
9.49268e-25
-2.44022e-24
1.42127e-24
-2.88656e-24
1.95752e-24
-3.24844e-24
2.54488e-24
-3.53593e-24
3.17136e-24
-3.75647e-24
3.82618e-24
-3.91628e-24
4.49955e-24
-4.02062e-24
5.18243e-24
-4.07385e-24
5.86669e-24
-4.07997e-24
6.54484e-24
-4.04254e-24
7.20996e-24
-3.96483e-24
7.85573e-24
-3.84988e-24
8.47636e-24
-3.70063e-24
9.06653e-24
-3.51983e-24
9.62142e-24
-3.3102e-24
1.01366e-23
-3.07435e-24
1.06082e-23
-2.81488e-24
1.10327e-23
-2.53434e-24
1.1407e-23
-2.23529e-24
1.17283e-23
-1.92024e-24
1.19941e-23
-1.59171e-24
1.22021e-23
-1.25203e-24
1.23508e-23
-9.02882e-25
1.24401e-23
-5.45898e-25
1.24701e-23
-1.83766e-25
1.24406e-23
1.80109e-25
1.23518e-23
5.4229e-25
1.22035e-23
8.99357e-25
1.1996e-23
1.24862e-24
1.17306e-23
1.58844e-24
1.14097e-23
1.91712e-24
1.10359e-23
2.23235e-24
1.06117e-23
2.53162e-24
1.01405e-23
2.81241e-24
9.62554e-24
3.07216e-24
9.0709e-24
3.30831e-24
8.48092e-24
3.51827e-24
7.86045e-24
3.69942e-24
7.21479e-24
3.84904e-24
6.5497e-24
3.96438e-24
5.87152e-24
4.0425e-24
5.18714e-24
4.08035e-24
4.50404e-24
4.07467e-24
3.83038e-24
4.02187e-24
3.17521e-24
3.91796e-24
2.54823e-24
3.75859e-24
1.96009e-24
3.53862e-24
1.42311e-24
3.25155e-24
9.50623e-25
2.88986e-24
5.56413e-25
2.44423e-24
2.5653e-25
1.90192e-24
6.68172e-26
1.24651e-24
4.79655e-25
5.78352e-26
-5.36502e-25
2.23855e-25
-1.4093e-24
4.86897e-25
-2.16158e-24
8.34935e-25
-2.78877e-24
1.25443e-24
-3.30657e-24
1.73298e-24
-3.72751e-24
2.25868e-24
-4.0621e-24
2.82067e-24
-4.3189e-24
3.40909e-24
-4.5051e-24
4.01486e-24
-4.62676e-24
4.62972e-24
-4.68905e-24
5.24617e-24
-4.69673e-24
5.8573e-24
-4.65395e-24
6.4568e-24
-4.56458e-24
7.03892e-24
-4.43223e-24
7.59838e-24
-4.26029e-24
8.13036e-24
-4.052e-24
8.6305e-24
-3.81049e-24
9.09482e-24
-3.53881e-24
9.51978e-24
-3.23995e-24
9.90218e-24
-2.91683e-24
1.02392e-23
-2.57237e-24
1.05283e-23
-2.20943e-24
1.07674e-23
-1.83081e-24
1.09545e-23
-1.43917e-24
1.10886e-23
-1.03689e-24
1.11691e-23
-6.26401e-25
1.1196e-23
-2.10676e-25
1.11694e-23
2.06832e-25
1.10891e-23
6.226e-25
1.09554e-23
1.03318e-24
1.07686e-23
1.43557e-24
1.05298e-23
1.82736e-24
1.02409e-23
2.20615e-24
9.90411e-24
2.56929e-24
9.52194e-24
2.91399e-24
9.09718e-24
3.23737e-24
8.63303e-24
3.53653e-24
8.13305e-24
3.80853e-24
7.60118e-24
4.0504e-24
7.04181e-24
4.25907e-24
6.45973e-24
4.43142e-24
5.86023e-24
4.5642e-24
5.24905e-24
4.65401e-24
4.6325e-24
4.69726e-24
4.01746e-24
4.69007e-24
3.41149e-24
4.62823e-24
2.82272e-24
4.50714e-24
2.26028e-24
4.32145e-24
1.73432e-24
4.065e-24
1.25535e-24
3.73094e-24
8.3507e-25
3.31059e-24
4.86938e-25
2.7928e-24
2.23949e-25
2.16523e-24
5.84673e-26
1.41241e-24
5.38142e-25
5.01189e-26
-5.86763e-25
1.93691e-25
-1.55321e-24
4.2243e-25
-2.3907e-24
7.26282e-25
-3.09302e-24
1.09403e-24
-3.67474e-24
1.51488e-24
-4.14876e-24
1.97851e-24
-4.52612e-24
2.47529e-24
-4.81604e-24
2.99626e-24
-5.02641e-24
3.53321e-24
-5.16403e-24
4.07875e-24
-5.23488e-24
4.62602e-24
-5.24426e-24
5.16877e-24
-5.19694e-24
5.70135e-24
-5.09737e-24
6.21857e-24
-4.94964e-24
6.71568e-24
-4.75756e-24
7.18837e-24
-4.52484e-24
7.63273e-24
-4.25499e-24
8.04524e-24
-3.95143e-24
8.42271e-24
-3.61751e-24
8.7623e-24
-3.2565e-24
9.0615e-24
-2.87164e-24
9.31812e-24
-2.46609e-24
9.53024e-24
-2.04296e-24
9.69634e-24
-1.60528e-24
9.8154e-24
-1.15594e-24
9.88697e-24
-6.97943e-25
9.91088e-24
-2.34553e-25
9.8871e-24
2.30673e-25
9.81565e-24
6.94109e-25
9.69672e-24
1.15219e-24
9.53075e-24
1.60164e-24
9.31875e-24
2.03947e-24
9.06225e-24
2.46277e-24
8.76315e-24
2.86854e-24
8.42365e-24
3.25364e-24
8.04628e-24
3.61492e-24
7.63384e-24
3.94915e-24
7.18954e-24
4.25305e-24
6.71689e-24
4.52327e-24
6.21981e-24
4.75639e-24
5.7026e-24
4.94888e-24
5.17e-24
5.09707e-24
4.62718e-24
5.1971e-24
4.07985e-24
5.2449e-24
3.53419e-24
5.23604e-24
2.99703e-24
5.16572e-24
2.47592e-24
5.02859e-24
1.979e-24
4.81873e-24
1.51496e-24
4.5294e-24
1.09382e-24
4.15245e-24
7.2618e-25
3.67857e-24
4.22278e-25
3.09704e-24
1.93286e-25
2.39471e-24
4.99464e-26
1.55594e-24
5.88104e-25
4.2848e-26
-6.29675e-25
1.6518e-25
-1.67585e-24
3.6116e-25
-2.58699e-24
6.22018e-25
-3.3542e-24
9.38824e-25
-3.99188e-24
1.30243e-24
-4.51269e-24
1.70391e-24
-4.92792e-24
2.13491e-24
-5.24733e-24
2.5876e-24
-5.47937e-24
3.05475e-24
-5.63144e-24
3.52979e-24
-5.71014e-24
4.00661e-24
-5.7213e-24
4.47973e-24
-5.67025e-24
4.94412e-24
-5.56194e-24
5.39519e-24
-5.40086e-24
5.82876e-24
-5.19127e-24
6.24104e-24
-4.93725e-24
6.62861e-24
-4.64266e-24
6.98835e-24
-4.31126e-24
7.31749e-24
-3.94672e-24
7.61355e-24
-3.55262e-24
7.87435e-24
-3.13247e-24
8.09797e-24
-2.68974e-24
8.28282e-24
-2.22782e-24
8.42761e-24
-1.75007e-24
8.53147e-24
-1.2598e-24
8.59393e-24
-7.60376e-25
8.61476e-24
-2.55347e-25
8.59391e-24
2.51577e-25
8.53143e-24
7.56644e-25
8.42755e-24
1.25615e-24
8.28275e-24
1.74653e-24
8.09789e-24
2.22442e-24
7.87426e-24
2.68652e-24
7.61346e-24
3.12946e-24
7.31738e-24
3.54985e-24
6.98823e-24
3.94422e-24
6.62848e-24
4.30907e-24
6.2409e-24
4.6408e-24
5.8286e-24
4.93576e-24
5.395e-24
5.19018e-24
4.94391e-24
5.40018e-24
4.4795e-24
5.56171e-24
4.00634e-24
5.6705e-24
3.52945e-24
5.72204e-24
3.05437e-24
5.71139e-24
2.58717e-24
5.63319e-24
2.13439e-24
5.48165e-24
1.70326e-24
5.25015e-24
1.30182e-24
4.93113e-24
9.38272e-25
4.5163e-24
6.21278e-25
3.99587e-24
3.6054e-25
3.35809e-24
1.65062e-25
2.59036e-24
4.28705e-26
1.67846e-24
6.30987e-25
3.56955e-26
-6.65489e-25
1.38055e-25
-1.77844e-24
3.0221e-25
-2.75138e-24
5.21296e-25
-3.57354e-24
7.88005e-25
-4.25884e-24
1.09476e-24
-4.8197e-24
1.43416e-24
-5.26757e-24
1.79912e-24
-5.61252e-24
2.18294e-24
-5.86341e-24
2.57946e-24
-6.02815e-24
2.98301e-24
-6.11388e-24
3.38834e-24
-6.12679e-24
3.79066e-24
-6.07273e-24
4.18569e-24
-5.95711e-24
4.56947e-24
-5.78476e-24
4.9384e-24
-5.56032e-24
5.28923e-24
-5.28817e-24
5.61901e-24
-4.97252e-24
5.9251e-24
-4.61742e-24
6.20513e-24
-4.22681e-24
6.45697e-24
-3.80451e-24
6.67878e-24
-3.35432e-24
6.86896e-24
-2.87993e-24
7.02616e-24
-2.38503e-24
7.14932e-24
-1.87323e-24
7.2377e-24
-1.34817e-24
7.29085e-24
-8.13503e-25
7.30854e-24
-2.73005e-25
7.29071e-24
2.69459e-25
7.23741e-24
8.09993e-25
7.14889e-24
1.34473e-24
7.0256e-24
1.8699e-24
6.86828e-24
2.38183e-24
6.67798e-24
2.8769e-24
6.45606e-24
3.35149e-24
6.20411e-24
3.80191e-24
5.92399e-24
4.22447e-24
5.61782e-24
4.61538e-24
5.28796e-24
4.9708e-24
4.93707e-24
5.2868e-24
4.56808e-24
5.55933e-24
4.18426e-24
5.78418e-24
3.7892e-24
5.95696e-24
3.38686e-24
6.07303e-24
2.98153e-24
6.12757e-24
2.57798e-24
6.11515e-24
2.18147e-24
6.02992e-24
1.7977e-24
5.86566e-24
1.43285e-24
5.61522e-24
1.09348e-24
5.27074e-24
7.86817e-25
4.8232e-24
5.20498e-25
4.26241e-24
3.01668e-25
3.57713e-24
1.37694e-25
2.75469e-24
3.54748e-26
1.78076e-24
6.66471e-25
2.8882e-26
-6.94408e-25
1.11889e-25
-1.86165e-24
2.45162e-25
-2.88484e-24
4.2338e-25
-3.75194e-24
6.40695e-25
-4.47634e-24
8.91074e-25
-5.07026e-24
1.16855e-24
-5.54523e-24
1.46733e-24
-5.91147e-24
1.7819e-24
-6.17814e-24
2.10717e-24
-6.35357e-24
2.43845e-24
-6.44531e-24
2.77136e-24
-6.45983e-24
3.10192e-24
-6.40339e-24
3.42659e-24
-6.28188e-24
3.74208e-24
-6.10034e-24
4.04539e-24
-5.8637e-24
4.33382e-24
-5.57667e-24
4.60496e-24
-5.24371e-24
4.85659e-24
-4.8691e-24
5.08678e-24
-4.45703e-24
5.29378e-24
-4.01154e-24
5.47607e-24
-3.53663e-24
5.63236e-24
-3.03622e-24
5.76153e-24
-2.51421e-24
5.86276e-24
-1.97445e-24
5.9354e-24
-1.4208e-24
5.97908e-24
-8.57157e-25
5.99358e-24
-2.87474e-25
5.97883e-24
2.84242e-25
5.93491e-24
8.53962e-25
5.86202e-24
1.41767e-24
5.76056e-24
1.97142e-24
5.63116e-24
2.5113e-24
5.47467e-24
3.03347e-24
5.29218e-24
3.53406e-24
5.08499e-24
4.00919e-24
4.85465e-24
4.45492e-24
4.60286e-24
4.86726e-24
4.33161e-24
5.24217e-24
4.04308e-24
5.57546e-24
3.73969e-24
5.86284e-24
3.42415e-24
6.09985e-24
3.09945e-24
6.28179e-24
2.76891e-24
6.40372e-24
2.43603e-24
6.4606e-24
2.1048e-24
6.44653e-24
1.77966e-24
6.35524e-24
1.46522e-24
6.18026e-24
1.1666e-24
5.91402e-24
8.89389e-25
5.54813e-24
6.39346e-25
5.07341e-24
4.22262e-25
4.47969e-24
2.4441e-25
3.75517e-24
1.1159e-25
2.88756e-24
2.89091e-26
1.86367e-24
6.95388e-25
2.2316e-26
-7.16802e-25
8.6474e-26
-1.92591e-24
1.8957e-25
-2.98805e-24
3.27613e-25
-3.8901e-24
4.9616e-25
-4.645e-24
6.90625e-25
-5.26484e-24
9.06377e-25
-5.7611e-24
1.13893e-24
-6.14413e-24
1.38399e-24
-6.4233e-24
1.63756e-24
-6.60724e-24
1.89595e-24
-6.70379e-24
2.15565e-24
-6.7196e-24
2.41368e-24
-6.66149e-24
2.66718e-24
-6.53546e-24
2.91355e-24
-6.34677e-24
3.15041e-24
-6.10061e-24
3.37566e-24
-5.80196e-24
3.58738e-24
-5.45547e-24
3.78388e-24
-5.06562e-24
3.96361e-24
-4.63678e-24
4.12522e-24
-4.17317e-24
4.26753e-24
-3.67894e-24
4.38952e-24
-3.15822e-24
4.49035e-24
-2.61504e-24
4.56936e-24
-2.05345e-24
4.62606e-24
-1.47748e-24
4.66013e-24
-8.91203e-25
4.67139e-24
-2.98705e-25
4.65978e-24
2.95879e-25
4.62538e-24
8.884e-25
4.56836e-24
1.47474e-24
4.48904e-24
2.05079e-24
4.38791e-24
2.61249e-24
4.26563e-24
3.15581e-24
4.12305e-24
3.6767e-24
3.9612e-24
4.17111e-24
3.78125e-24
4.63494e-24
3.58456e-24
5.06403e-24
3.37267e-24
5.45413e-24
3.1473e-24
5.80091e-24
2.91035e-24
6.09988e-24
2.66392e-24
6.34637e-24
2.4104e-24
6.53542e-24
2.1524e-24
6.66183e-24
1.89278e-24
6.72033e-24
1.63451e-24
6.70491e-24
1.3811e-24
6.60876e-24
1.13626e-24
6.42522e-24
9.04026e-25
6.14638e-24
6.88614e-25
5.76367e-24
4.94483e-25
5.26767e-24
3.26406e-25
4.64787e-24
1.88835e-25
3.89283e-24
8.61042e-26
2.99054e-24
2.21467e-26
1.92761e-24
7.17538e-25
1.58738e-26
-7.32674e-25
6.15691e-26
-1.97168e-24
1.35044e-25
-3.06158e-24
2.33475e-25
-3.98858e-24
3.53749e-25
-4.76533e-24
4.92619e-25
-5.40377e-24
6.46813e-25
-5.91535e-24
8.13152e-25
-6.31052e-24
9.88554e-25
-6.59876e-24
1.17006e-24
-6.78878e-24
1.35514e-24
-6.88892e-24
1.54112e-24
-6.90562e-24
1.72601e-24
-6.84642e-24
1.9077e-24
-6.71717e-24
2.08427e-24
-6.52336e-24
2.25402e-24
-6.27037e-24
2.41543e-24
-5.96338e-24
2.56715e-24
-5.6072e-24
2.70795e-24
-5.20643e-24
2.83673e-24
-4.76556e-24
2.95251e-24
-4.28895e-24
3.05445e-24
-3.78088e-24
3.14183e-24
-3.24558e-24
3.21404e-24
-2.68723e-24
3.27061e-24
-2.11e-24
3.31118e-24
-1.51804e-24
3.33553e-24
-9.15533e-25
3.34353e-24
-3.06677e-25
3.33513e-24
3.04305e-25
3.31037e-24
9.13186e-25
3.2694e-24
1.51574e-24
3.21245e-24
2.10777e-24
3.13988e-24
2.6851e-24
3.05216e-24
3.24356e-24
2.9499e-24
3.779e-24
2.83382e-24
4.28723e-24
2.70478e-24
4.76403e-24
2.56375e-24
5.2051e-24
2.41184e-24
5.6061e-24
2.25027e-24
5.96253e-24
2.08042e-24
6.26978e-24
1.90379e-24
6.52306e-24
1.7221e-24
6.71717e-24
1.53726e-24
6.84672e-24
1.35139e-24
6.90626e-24
1.16647e-24
6.8899e-24
9.85209e-25
6.79008e-24
8.10125e-25
6.60037e-24
6.44109e-25
6.31246e-24
4.90307e-25
5.91753e-24
3.51962e-25
5.40607e-24
2.3219e-25
4.76771e-24
1.34196e-25
3.99091e-24
6.1131e-26
3.06352e-24
1.57953e-26
1.97309e-24
7.33335e-25
9.56495e-27
-7.42273e-25
3.70566e-26
-1.99915e-24
8.12511e-26
-3.10576e-24
1.40442e-25
-4.04776e-24
2.12776e-25
-4.83765e-24
2.96298e-25
-5.48728e-24
3.8904e-25
-6.00809e-24
4.89091e-25
-6.41057e-24
5.94819e-25
-6.70448e-24
7.04458e-25
-6.89842e-24
8.15411e-25
-6.99987e-24
9.27242e-25
-7.01745e-24
1.03885e-24
-6.95802e-24
1.14838e-24
-6.82669e-24
1.25454e-24
-6.62952e-24
1.35663e-24
-6.37245e-24
1.45373e-24
-6.06048e-24
1.54501e-24
-5.69846e-24
1.62972e-24
-5.29112e-24
1.70718e-24
-4.843e-24
1.77681e-24
-4.35856e-24
1.8381e-24
-3.84215e-24
1.89061e-24
-3.29808e-24
1.93399e-24
-2.73059e-24
1.96795e-24
-2.14394e-24
1.99229e-24
-1.54235e-24
2.00685e-24
-9.30071e-25
2.01155e-24
-3.11363e-25
2.00639e-24
3.09496e-25
1.99137e-24
9.28222e-25
1.9666e-24
1.54054e-24
1.9322e-24
2.14219e-24
1.88841e-24
2.72892e-24
1.8355e-24
3.29649e-24
1.77385e-24
3.84068e-24
1.70389e-24
4.35721e-24
1.62613e-24
4.8418e-24
1.54117e-24
5.29008e-24
1.44968e-24
5.69761e-24
1.35241e-24
6.05982e-24
1.25022e-24
6.372e-24
1.14399e-24
6.6293e-24
1.03447e-24
6.82671e-24
9.2292e-25
6.95828e-24
8.11227e-25
7.01797e-24
7.00505e-25
7.00064e-24
5.91134e-25
6.89946e-24
4.85726e-25
6.70579e-24
3.86122e-25
6.41207e-24
2.93902e-25
6.00976e-24
2.10821e-25
5.48916e-24
1.38973e-25
4.83955e-24
8.03589e-26
4.0495e-24
3.66974e-26
3.10732e-24
9.43356e-27
2.00024e-24
7.42767e-25
3.29435e-27
-7.45524e-25
1.27505e-26
-2.00854e-24
2.78752e-26
-3.12081e-24
4.80613e-26
-4.06787e-24
7.26501e-26
-4.86217e-24
1.00975e-25
-5.51554e-24
1.32347e-25
-6.0394e-24
1.66026e-25
-6.44419e-24
2.01264e-25
-6.73967e-24
2.37808e-25
-6.93491e-24
2.75785e-25
-7.03779e-24
3.15191e-25
-7.05681e-24
3.52924e-25
-6.9957e-24
3.88929e-25
-6.86265e-24
4.24269e-25
-6.66482e-24
4.58474e-25
-6.40661e-24
4.91021e-25
-6.09298e-24
5.21607e-25
-5.72901e-24
5.49977e-25
-5.31945e-24
5.75904e-25
-4.86889e-24
5.99185e-25
-4.38181e-24
6.19651e-25
-3.86259e-24
6.37159e-25
-3.31555e-24
6.51591e-25
-2.745e-24
6.62846e-25
-2.15517e-24
6.70861e-25
-1.55034e-24
6.75586e-25
-9.34776e-25
6.76999e-25
-3.12757e-25
6.75091e-25
3.1142e-25
6.69873e-25
9.33454e-25
6.61378e-25
1.54905e-24
6.49655e-25
2.15392e-24
6.34782e-25
2.7438e-24
6.16852e-25
3.31443e-24
5.95997e-25
3.86154e-24
5.72357e-25
4.38085e-24
5.46116e-25
4.86804e-24
5.17471e-25
5.31872e-24
4.86661e-25
5.72841e-24
4.5394e-25
6.09252e-24
4.19624e-25
6.4063e-24
3.8423e-25
6.66467e-24
3.48243e-25
6.86267e-24
3.10594e-25
6.9959e-24
2.7134e-25
7.05719e-24
2.33583e-25
7.03835e-24
1.97351e-25
6.93565e-24
1.6253e-25
6.74056e-24
1.29275e-25
6.44528e-24
9.83303e-26
6.04065e-24
7.06296e-26
5.51681e-24
4.66876e-26
4.86345e-24
2.69544e-26
4.0692e-24
1.21776e-26
3.12191e-24
3.11656e-27
2.00935e-24
7.4588e-25
-2.92464e-27
-7.42591e-25
-1.14686e-26
-1.99985e-24
-2.53604e-26
-3.10678e-24
-4.41178e-26
-4.04898e-24
-6.71831e-26
-4.83898e-24
-9.39604e-26
-5.48864e-24
-1.23818e-25
-6.00942e-24
-1.56046e-25
-6.41185e-24
-1.89919e-25
-6.70569e-24
-2.25184e-25
-6.89955e-24
-2.61976e-25
-7.00091e-24
-3.00303e-25
-7.01839e-24
-3.37052e-25
-6.95887e-24
-3.72186e-25
-6.82744e-24
-4.06768e-25
-6.63016e-24
-4.40317e-25
-6.37299e-24
-4.72317e-25
-6.06092e-24
-5.02454e-25
-5.69881e-24
-5.3048e-25
-5.29137e-24
-5.56161e-25
-4.84316e-24
-5.79294e-25
-4.35863e-24
-5.99706e-25
-3.84213e-24
-6.17255e-25
-3.29797e-24
-6.31817e-25
-2.7304e-24
-6.43297e-25
-2.14366e-24
-6.5162e-25
-1.54199e-24
-6.56738e-25
-9.29637e-25
-6.58618e-25
-3.10861e-25
-6.57252e-25
3.10065e-25
-6.52644e-25
9.28851e-25
-6.44822e-25
1.54122e-24
-6.33826e-25
2.14292e-24
-6.19726e-25
2.72969e-24
-6.02611e-25
3.2973e-24
-5.82603e-25
3.84151e-24
-5.59839e-25
4.35806e-24
-5.3449e-25
4.84266e-24
-5.06746e-25
5.29094e-24
-4.76839e-25
5.69846e-24
-4.45016e-25
6.06065e-24
-4.11582e-25
6.37281e-24
-3.7705e-25
6.63008e-24
-3.41898e-25
6.82745e-24
-3.05053e-25
6.95899e-24
-2.66554e-25
7.01861e-24
-2.29503e-25
7.00122e-24
-1.93919e-25
6.89998e-24
-1.597e-25
6.70625e-24
-1.26983e-25
6.41246e-24
-9.65105e-26
6.01007e-24
-6.92533e-26
5.48944e-24
-4.57488e-26
4.83982e-24
-2.63462e-26
4.04966e-24
-1.18569e-26
3.10744e-24
-3.03573e-27
2.00034e-24
7.42837e-25
-9.22066e-27
-7.33288e-25
-3.58055e-26
-1.97307e-24
-7.87773e-26
-3.06361e-24
-1.36575e-25
-3.99099e-24
-2.07429e-25
-4.76794e-24
-2.89461e-25
-5.40643e-24
-3.80738e-25
-5.91797e-24
-4.79382e-25
-6.31304e-24
-5.83784e-25
-6.60113e-24
-6.92184e-25
-6.791e-24
-8.01983e-25
-6.89097e-24
-9.12779e-25
-6.90747e-24
-1.02347e-24
-6.84806e-24
-1.13217e-24
-6.71862e-24
-1.23761e-24
-6.52462e-24
-1.33907e-24
-6.27143e-24
-1.43565e-24
-5.96425e-24
-1.5265e-24
-5.60788e-24
-1.61086e-24
-5.20692e-24
-1.68808e-24
-4.76587e-24
-1.75757e-24
-4.28907e-24
-1.81881e-24
-3.78083e-24
-1.87137e-24
-3.24536e-24
-1.91488e-24
-2.68685e-24
-1.94905e-24
-2.10945e-24
-1.97368e-24
-1.51734e-24
-1.98862e-24
-9.14677e-25
-1.99378e-24
-3.05687e-25
-1.98914e-24
3.05431e-25
-1.97471e-24
9.14421e-25
-1.95058e-24
1.51709e-24
-1.91689e-24
2.10921e-24
-1.87385e-24
2.68662e-24
-1.82173e-24
3.24515e-24
-1.7609e-24
3.78064e-24
-1.69178e-24
4.2889e-24
-1.61489e-24
4.76572e-24
-1.5308e-24
5.20679e-24
-1.44019e-24
5.60777e-24
-1.34379e-24
5.96417e-24
-1.24245e-24
6.27138e-24
-1.13705e-24
6.52459e-24
-1.02833e-24
6.71862e-24
-9.17537e-25
6.84807e-24
-8.06575e-25
6.90752e-24
-6.9655e-25
6.89106e-24
-5.87822e-25
6.79111e-24
-4.82966e-25
6.60124e-24
-3.83894e-25
6.31323e-24
-2.92213e-25
5.91823e-24
-2.09531e-25
5.40659e-24
-1.37964e-25
4.76809e-24
-7.97454e-26
3.9913e-24
-3.64759e-26
3.06386e-24
-9.44382e-27
1.97325e-24
7.33383e-25
-1.55147e-26
-7.17721e-25
-6.03418e-26
-1.92797e-24
-1.32658e-25
-2.99102e-24
-2.29769e-25
-3.89362e-24
-3.48652e-25
-4.6488e-24
-4.86129e-25
-5.26871e-24
-6.38971e-25
-5.7649e-24
-8.04017e-25
-6.14778e-24
-9.78191e-25
-6.42675e-24
-1.15856e-24
-6.61043e-24
-1.34261e-24
-6.70674e-24
-1.52764e-24
-6.72226e-24
-1.71167e-24
-6.66387e-24
-1.8926e-24
-6.53754e-24
-2.0685e-24
-6.34858e-24
-2.23766e-24
-6.10213e-24
-2.39858e-24
-5.80321e-24
-2.54991e-24
-5.45644e-24
-2.69039e-24
-5.06634e-24
-2.81896e-24
-4.63721e-24
-2.9346e-24
-4.17335e-24
-3.0365e-24
-3.67886e-24
-3.1239e-24
-3.1579e-24
-3.19623e-24
-2.61446e-24
-3.25299e-24
-2.05265e-24
-3.29385e-24
-1.47644e-24
-3.31855e-24
-8.89962e-25
-3.32697e-24
-2.97252e-25
-3.31905e-24
2.97506e-25
-3.29485e-24
8.90217e-25
-3.25448e-24
1.4767e-24
-3.1982e-24
2.05289e-24
-3.12631e-24
2.6147e-24
-3.03934e-24
3.15812e-24
-2.93783e-24
3.67908e-24
-2.82255e-24
4.17355e-24
-2.69431e-24
4.63739e-24
-2.5541e-24
5.06649e-24
-2.403e-24
5.45657e-24
-2.24226e-24
5.80331e-24
-2.0732e-24
6.1022e-24
-1.89735e-24
6.3486e-24
-1.7164e-24
6.53752e-24
-1.53229e-24
6.66381e-24
-1.3471e-24
6.72215e-24
-1.16279e-24
6.70657e-24
-9.82117e-25
6.61024e-24
-8.07628e-25
6.42655e-24
-6.42095e-25
6.14749e-24
-4.88609e-25
5.76453e-24
-3.5072e-25
5.26848e-24
-2.31468e-25
4.6486e-24
-1.33698e-25
3.89327e-24
-6.07337e-26
2.9908e-24
-1.56375e-26
1.92787e-24
7.17732e-25
-2.20007e-26
-6.95599e-25
-8.53034e-26
-1.86434e-24
-1.87323e-25
-2.88867e-24
-3.24155e-25
-3.75646e-24
-4.91461e-25
-4.48119e-24
-6.84682e-25
-5.07519e-24
-8.99243e-25
-5.55005e-24
-1.13067e-24
-5.91608e-24
-1.37467e-24
-6.18249e-24
-1.62726e-24
-6.3576e-24
-1.88475e-24
-6.44901e-24
-2.14362e-24
-6.46318e-24
-2.4009e-24
-6.40638e-24
-2.65373e-24
-6.28452e-24
-2.89951e-24
-6.10262e-24
-3.13586e-24
-5.86563e-24
-3.36067e-24
-5.57825e-24
-3.57204e-24
-5.24494e-24
-3.76826e-24
-4.87e-24
-3.94779e-24
-4.45757e-24
-4.10928e-24
-4.01176e-24
-4.25155e-24
-3.53651e-24
-4.37357e-24
-3.0358e-24
-4.4745e-24
-2.51347e-24
-4.55368e-24
-1.97342e-24
-4.61062e-24
-1.41947e-24
-4.645e-24
-8.55562e-25
-4.65664e-24
-2.85601e-25
-4.64548e-24
2.86337e-25
-4.61157e-24
8.5629e-25
-4.55508e-24
1.42018e-24
-4.47634e-24
1.97411e-24
-4.37583e-24
2.51413e-24
-4.25421e-24
3.03644e-24
-4.11231e-24
3.5371e-24
-3.95117e-24
4.01231e-24
-3.77193e-24
4.45805e-24
-3.57598e-24
4.87042e-24
-3.36482e-24
5.24527e-24
-3.14018e-24
5.57852e-24
-2.90394e-24
5.86579e-24
-2.65821e-24
6.1027e-24
-2.40536e-24
6.28448e-24
-2.14801e-24
6.40624e-24
-1.88899e-24
6.46291e-24
-1.63131e-24
6.44866e-24
-1.37843e-24
6.35711e-24
-1.134e-24
6.18187e-24
-9.02192e-25
5.91542e-24
-6.87356e-25
5.54941e-24
-4.93498e-25
5.07434e-24
-3.25447e-25
4.48027e-24
-1.88291e-25
3.75585e-24
-8.60675e-26
2.88816e-24
-2.22798e-26
1.86393e-24
6.95437e-25
-2.8549e-26
-6.66953e-25
-1.10791e-25
-1.7817e-24
-2.43087e-25
-2.75598e-24
-4.20263e-25
-3.57891e-24
-6.36531e-25
-4.26455e-24
-8.859e-25
-4.82547e-24
-1.16242e-24
-5.27319e-24
-1.46028e-24
-5.6179e-24
-1.774e-24
-5.86845e-24
-2.09847e-24
-6.03284e-24
-2.42904e-24
-6.11816e-24
-2.76127e-24
-6.13069e-24
-3.09122e-24
-6.07619e-24
-3.41534e-24
-5.96018e-24
-3.73036e-24
-5.78739e-24
-4.03323e-24
-5.56257e-24
-4.32132e-24
-5.28998e-24
-4.59213e-24
-4.97396e-24
-4.84356e-24
-4.61842e-24
-5.07356e-24
-4.22745e-24
-5.28048e-24
-3.80473e-24
-5.4627e-24
-3.35419e-24
-5.61903e-24
-2.87939e-24
-5.74827e-24
-2.38417e-24
-5.84967e-24
-1.87196e-24
-5.92248e-24
-1.34661e-24
-5.96645e-24
-8.11568e-25
-5.98122e-24
-2.70826e-25
-5.96687e-24
2.71979e-25
-5.92332e-24
8.12708e-25
-5.85092e-24
1.34774e-24
-5.74991e-24
1.87305e-24
-5.62107e-24
2.38521e-24
-5.46509e-24
2.88037e-24
-5.28322e-24
3.35512e-24
-5.07659e-24
3.80556e-24
-4.84688e-24
4.22821e-24
-4.59568e-24
4.61906e-24
-4.32508e-24
4.97451e-24
-4.03712e-24
5.29038e-24
-3.73437e-24
5.56284e-24
-3.41939e-24
5.7875e-24
-3.09528e-24
5.96014e-24
-2.76525e-24
6.07597e-24
-2.43293e-24
6.13032e-24
-2.10212e-24
6.11758e-24
-1.77742e-24
6.03211e-24
-1.46347e-24
5.8676e-24
-1.16523e-24
5.61686e-24
-8.88082e-25
5.27193e-24
-6.38385e-25
4.8243e-24
-4.21972e-25
4.26351e-24
-2.44143e-25
3.57766e-24
-1.11145e-25
2.75493e-24
-2.86548e-26
1.78107e-24
6.66763e-25
-3.54033e-26
-6.31393e-25
-1.37056e-25
-1.6796e-24
-3.00385e-25
-2.59221e-24
-5.18637e-25
-3.36022e-24
-7.84543e-25
-3.99822e-24
-1.09057e-24
-4.51903e-24
-1.42929e-24
-4.93409e-24
-1.79361e-24
-5.2532e-24
-2.17685e-24
-5.48486e-24
-2.57281e-24
-5.63653e-24
-2.97584e-24
-5.71482e-24
-3.3807e-24
-5.72553e-24
-3.78257e-24
-5.67404e-24
-4.17722e-24
-5.56527e-24
-4.56062e-24
-5.40375e-24
-4.92925e-24
-5.19372e-24
-5.2798e-24
-4.93924e-24
-5.60938e-24
-4.6442e-24
-5.91527e-24
-4.31236e-24
-6.19519e-24
-3.94739e-24
-6.44693e-24
-3.55286e-24
-6.66872e-24
-3.13229e-24
-6.85889e-24
-2.68913e-24
-7.01616e-24
-2.22682e-24
-7.1394e-24
-1.74866e-24
-7.22795e-24
-1.25803e-24
-7.28127e-24
-7.58226e-25
-7.29922e-24
-2.52879e-25
-7.28163e-24
2.54378e-25
-7.22867e-24
7.59709e-25
-7.14047e-24
1.25949e-24
-7.01756e-24
1.75007e-24
-6.86061e-24
2.22818e-24
-6.67075e-24
2.6904e-24
-6.44924e-24
3.13349e-24
-6.19776e-24
3.55394e-24
-5.91809e-24
3.94838e-24
-5.61239e-24
4.31319e-24
-5.28299e-24
4.64491e-24
-4.93258e-24
4.93975e-24
-4.56404e-24
5.19408e-24
-4.18069e-24
5.40389e-24
-3.78606e-24
5.56524e-24
-3.38414e-24
5.67376e-24
-2.97918e-24
5.72505e-24
-2.57603e-24
5.7141e-24
-2.17989e-24
5.63563e-24
-1.7963e-24
5.48365e-24
-1.43169e-24
5.25188e-24
-1.09287e-24
4.93272e-24
-7.8641e-25
4.51745e-24
-5.19711e-25
3.99642e-24
-3.01253e-25
3.35882e-24
-1.37911e-25
2.59108e-24
-3.58143e-26
1.67873e-24
6.30929e-25
-4.25047e-26
-5.8875e-25
-1.64318e-25
-1.55727e-24
-3.59619e-25
-2.3964e-24
-6.19958e-25
-3.09939e-24
-9.36312e-25
-3.68139e-24
-1.29951e-24
-4.15538e-24
-1.70065e-24
-4.53251e-24
-2.13135e-24
-4.82208e-24
-2.58373e-24
-5.03208e-24
-3.05061e-24
-5.16927e-24
-3.52536e-24
-5.23972e-24
-4.00195e-24
-5.2486e-24
-4.47479e-24
-5.20088e-24
-4.93897e-24
-5.10081e-24
-5.3898e-24
-4.95265e-24
-5.82322e-24
-4.76005e-24
-6.2353e-24
-4.52693e-24
-6.62276e-24
-4.25653e-24
-6.98234e-24
-3.9526e-24
-7.31145e-24
-3.61812e-24
-7.60739e-24
-3.25677e-24
-7.86821e-24
-2.87135e-24
-8.09176e-24
-2.46548e-24
-8.2767e-24
-2.0418e-24
-8.42147e-24
-1.60384e-24
-8.52549e-24
-1.15397e-24
-8.58797e-24
-6.9573e-25
-8.60903e-24
-2.31822e-25
-8.58825e-24
2.33574e-25
-8.52605e-24
6.97473e-25
-8.42228e-24
1.15566e-24
-8.27779e-24
1.6055e-24
-8.09307e-24
2.04336e-24
-7.86979e-24
2.467e-24
-7.60916e-24
2.87271e-24
-7.31346e-24
3.25807e-24
-6.98448e-24
3.61922e-24
-6.62512e-24
3.95362e-24
-6.23774e-24
4.25731e-24
-5.82583e-24
4.52759e-24
-5.39244e-24
4.76042e-24
-4.94172e-24
4.95288e-24
-4.47749e-24
5.10071e-24
-4.00468e-24
5.20062e-24
-3.528e-24
5.24802e-24
-3.05319e-24
5.23893e-24
-2.58609e-24
5.16814e-24
-2.13368e-24
5.03085e-24
-1.70276e-24
4.82054e-24
-1.30115e-24
4.53068e-24
-9.37686e-25
4.15354e-24
-6.2144e-25
3.67972e-24
-3.60654e-25
3.09758e-24
-1.64623e-25
2.39471e-24
-4.24834e-26
1.55617e-24
5.88423e-25
-4.99494e-26
-5.38614e-25
-1.92927e-25
-1.41374e-24
-4.21397e-25
-2.16738e-24
-7.25002e-25
-2.79524e-24
-1.09267e-24
-3.3132e-24
-1.51356e-24
-3.73398e-24
-1.97726e-24
-4.06832e-24
-2.47405e-24
-4.32483e-24
-2.99505e-24
-4.51064e-24
-3.53203e-24
-4.63188e-24
-4.07757e-24
-4.69378e-24
-4.62479e-24
-4.70102e-24
-5.16754e-24
-4.65778e-24
-5.70005e-24
-4.56798e-24
-6.21724e-24
-4.43516e-24
-6.71425e-24
-4.26277e-24
-7.18694e-24
-4.054e-24
-7.6312e-24
-3.81205e-24