/*--------------------------------*- C++ -*----------------------------------*\
| =========                 |                                                 |
| \\      /  F ield         | OpenFOAM: The Open Source CFD Toolbox           |
|  \\    /   O peration     | Version:  5.0                                   |
|   \\  /    A nd           | Web:      www.OpenFOAM.org                      |
|    \\/     M anipulation  |                                                 |
\*---------------------------------------------------------------------------*/
FoamFile
{
    version     2.0;
    format      ascii;
    class       volVectorField;
    location    "2.8";
    object      U;
}
// * * * * * * * * * * * * * * * * * * * * * * * * * * * * * * * * * * * * * //

dimensions      [0 1 -1 0 0 0 0];

internalField   nonuniform List<vector> 
25
(
(1 -2.01638e-09 3.22841e-29)
(1 9.93574e-10 -3.23241e-23)
(1 -2.32825e-09 -3.23241e-23)
(1 4.56182e-09 -3.2324e-23)
(1 2.42684e-09 -9.53229e-30)
(0.92 -3.08531e-09 -7.11297e-37)
(0.92 5.30882e-10 2.79793e-23)
(0.92 -3.22494e-09 -1.14393e-28)
(0.92 8.19991e-09 -2.79794e-23)
(0.92 4.73261e-09 -2.79793e-23)
(0.76 -2.57599e-10 -2.73702e-23)
(0.76 -2.31056e-09 2.91704e-29)
(0.76 1.13564e-09 2.79794e-23)
(0.76 2.93637e-09 -5.59587e-23)
(0.76 4.17361e-09 -5.59586e-23)
(0.52 2.83896e-09 5.4844e-23)
(0.52 -2.69401e-09 2.79793e-23)
(0.52 3.28564e-09 -5.59588e-23)
(0.52 -5.63195e-09 -2.79783e-23)
(0.52 1.20398e-09 5.59584e-23)
(0.2 -1.54939e-09 3.93807e-23)
(0.2 -6.13986e-10 1.99393e-23)
(0.2 7.17132e-10 -5.9818e-23)
(0.2 3.61743e-09 -1.99392e-23)
(0.2 3.63765e-09 3.98786e-23)
)
;

boundaryField
{
    top
    {
        type            fixedValue;
        value           uniform (0 0 0);
    }
    bottom
    {
        type            symmetryPlane;
    }
    inlet
    {
        type            pressureInletVelocity;
        value           nonuniform List<vector> 5((1 -0 -0) (0.92 -0 -0) (0.76 -0 -0) (0.52 -0 -0) (0.2 -0 -0));
    }
    outlet
    {
        type            inletOutlet;
        inletValue      nonuniform 0();
        value           nonuniform 0();
    }
    frontAndBack
    {
        type            empty;
    }
    procBoundary0to1
    {
        type            processor;
        value           nonuniform List<vector> 5((1 -1.59963e-09 6.46479e-23) (0.92 -7.2496e-10 -2.79793e-23) (0.76 4.95997e-09 2.79794e-23) (0.52 8.03679e-09 5.59589e-23) (0.2 1.14367e-09 3.98786e-23));
    }
}


// ************************************************************************* //
