/*--------------------------------*- C++ -*----------------------------------*\
| =========                 |                                                 |
| \\      /  F ield         | OpenFOAM: The Open Source CFD Toolbox           |
|  \\    /   O peration     | Version:  5.0                                   |
|   \\  /    A nd           | Web:      www.OpenFOAM.org                      |
|    \\/     M anipulation  |                                                 |
\*---------------------------------------------------------------------------*/
FoamFile
{
    version     2.0;
    format      ascii;
    class       surfaceScalarField;
    location    "269";
    object      phi;
}
// * * * * * * * * * * * * * * * * * * * * * * * * * * * * * * * * * * * * * //

dimensions      [0 3 -1 0 0 0 0];

internalField   nonuniform List<scalar> 
3052
(
7.45712e-23
-2.97469e-22
5.67227e-22
-5.1521e-22
1.41584e-21
-8.62414e-22
2.38327e-21
-9.85155e-22
3.47881e-21
-1.10584e-21
4.75837e-21
-1.28908e-21
6.13057e-21
-1.37893e-21
7.57391e-21
-1.44998e-21
9.08395e-21
-1.5187e-21
1.06344e-20
-1.55847e-21
1.22017e-20
-1.57466e-21
1.37714e-20
-1.57682e-21
1.53278e-20
-1.56344e-21
1.68541e-20
-1.53277e-21
1.83359e-20
-1.48885e-21
1.97608e-20
-1.43184e-21
2.11159e-20
-1.36193e-21
2.23907e-20
-1.28114e-21
2.35744e-20
-1.19006e-21
2.46586e-20
-1.09005e-21
2.56343e-20
-9.81263e-22
2.64957e-20
-8.65977e-22
2.72353e-20
-7.43748e-22
2.78464e-20
-6.14109e-22
2.8327e-20
-4.83666e-22
2.86792e-20
-3.54553e-22
2.88911e-20
-2.13854e-22
2.89607e-20
-7.01226e-23
2.88867e-20
7.40323e-23
2.86712e-20
2.16225e-22
2.83156e-20
3.57132e-22
2.78324e-20
4.86869e-22
2.72185e-20
6.18976e-22
2.64779e-20
7.46823e-22
2.56157e-20
8.68975e-22
2.46409e-20
9.8241e-22
2.35563e-20
1.09186e-21
2.23746e-20
1.1897e-21
2.11015e-20
1.28117e-21
1.97484e-20
1.36086e-21
1.83254e-20
1.42953e-21
1.68474e-20
1.48442e-21
1.53246e-20
1.5287e-21
1.37734e-20
1.55734e-21
1.22081e-20
1.57153e-21
1.06468e-20
1.56808e-21
9.10591e-21
1.54788e-21
7.60541e-21
1.5076e-21
6.165e-21
1.44871e-21
4.80682e-21
1.36534e-21
3.55441e-21
1.25645e-21
2.43885e-21
1.12447e-21
1.48797e-21
9.61914e-22
7.19595e-22
7.72627e-22
2.16815e-22
5.07648e-22
2.17221e-22
1.60746e-22
-4.80508e-22
6.25514e-22
-9.98749e-22
1.22887e-21
-1.53543e-21
2.11228e-21
-1.89778e-21
3.19708e-21
-2.22148e-21
4.35873e-21
-2.47123e-21
5.62813e-21
-2.6672e-21
6.98506e-21
-2.82913e-21
8.39021e-21
-2.94417e-21
9.82877e-21
-3.01819e-21
1.12899e-20
-3.05594e-21
1.27541e-20
-3.05935e-21
1.42033e-20
-3.03023e-21
1.56235e-20
-2.97235e-21
1.70033e-20
-2.88693e-21
1.83287e-20
-2.77583e-21
1.95899e-20
-2.64056e-21
2.07756e-20
-2.48417e-21
2.18773e-20
-2.30716e-21
2.28849e-20
-2.1127e-21
2.37925e-20
-1.90141e-21
2.45917e-20
-1.67681e-21
2.52786e-20
-1.43895e-21
2.58487e-20
-1.19229e-21
2.63009e-20
-9.41376e-22
2.66264e-20
-6.85068e-22
2.6825e-20
-4.14433e-22
2.68901e-20
-1.36565e-22
2.68213e-20
1.43863e-22
2.66179e-20
4.22326e-22
2.62881e-20
6.94248e-22
2.5834e-20
9.51494e-22
2.52643e-20
1.20376e-21
2.45781e-20
1.45012e-21
2.37792e-20
1.68738e-21
2.28712e-20
1.90933e-21
2.1865e-20
2.11918e-21
2.07646e-20
2.31085e-21
1.95812e-20
2.4854e-21
1.83222e-20
2.63835e-21
1.69989e-20
2.77115e-21
1.562e-20
2.87893e-21
1.42021e-20
2.96297e-21
1.27569e-20
3.0188e-21
1.13001e-20
3.04629e-21
9.84543e-21
3.04082e-21
8.41091e-21
3.00168e-21
7.01516e-21
2.92532e-21
5.67571e-21
2.80726e-21
4.41126e-21
2.64496e-21
3.25129e-21
2.44439e-21
2.2137e-21
2.18182e-21
1.33448e-21
1.85677e-21
6.61751e-22
1.47267e-21
1.89574e-22
9.84333e-22
4.06997e-22
8.81135e-23
-5.66541e-22
4.96769e-22
-1.46259e-21
1.11354e-21
-2.1671e-21
1.92778e-21
-2.73044e-21
2.87359e-21
-3.17935e-21
3.95305e-21
-3.56262e-21
5.13234e-21
-3.85574e-21
6.3823e-21
-4.08633e-21
7.68296e-21
-4.25456e-21
9.01962e-21
-4.36243e-21
1.03737e-20
-4.41629e-21
1.1728e-20
-4.4209e-21
1.307e-20
-4.38067e-21
1.43869e-20
-4.29646e-21
1.56645e-20
-4.17228e-21
1.68924e-20
-4.01082e-21
1.80606e-20
-3.81544e-21
1.91589e-20
-3.58777e-21
2.01784e-20
-3.33211e-21
2.1112e-20
-3.05032e-21
2.19522e-20
-2.7458e-21
2.26933e-20
-2.42019e-21
2.33297e-20
-2.07807e-21
2.38582e-20
-1.72186e-21
2.42723e-20
-1.35687e-21
2.45679e-20
-9.80876e-22
2.47454e-20
-5.92767e-22
2.48039e-20
-1.94466e-22
2.47416e-20
2.0628e-22
2.4561e-20
6.04688e-22
2.42635e-20
9.94209e-22
2.3848e-20
1.37198e-21
2.33184e-20
1.73826e-21
2.26811e-20
2.09353e-21
2.19404e-20
2.43379e-21
2.11005e-20
2.75673e-21
2.01679e-20
3.05861e-21
1.91493e-20
3.33694e-21
1.80528e-20
3.58904e-21
1.68862e-20
3.81241e-21
1.56595e-20
4.00329e-21
1.4384e-20
4.16112e-21
1.30707e-20
4.28269e-21
1.17314e-20
4.36502e-21
1.03806e-20
4.40379e-21
9.03297e-21
4.39707e-21
7.70384e-21
4.34005e-21
6.40902e-21
4.22735e-21
5.16925e-21
4.05942e-21
4.00308e-21
3.82936e-21
2.92685e-21
3.51917e-21
1.98031e-21
3.143e-21
1.18379e-21
2.68231e-21
5.51123e-22
2.10186e-21
1.45551e-22
1.39879e-21
5.5306e-22
1.07892e-22
-6.83623e-22
4.6224e-22
-1.82384e-21
9.97799e-22
-2.70035e-21
1.71727e-21
-3.45293e-21
2.59167e-21
-4.05736e-21
3.5701e-21
-4.54017e-21
4.64523e-21
-4.92996e-21
5.79109e-21
-5.23102e-21
6.98622e-21
-5.44531e-21
8.2138e-21
-5.58542e-21
9.45859e-21
-5.65865e-21
1.07053e-20
-5.66593e-21
1.19398e-20
-5.61282e-21
1.31504e-20
-5.50492e-21
1.43259e-20
-5.34544e-21
1.5456e-20
-5.13799e-21
1.65305e-20
-4.88644e-21
1.7541e-20
-4.59481e-21
1.84794e-20
-4.26668e-21
1.93383e-20
-3.90556e-21
2.01113e-20
-3.51492e-21
2.07928e-20
-3.09875e-21
2.13779e-20
-2.66062e-21
2.18622e-20
-2.20418e-21
2.22406e-20
-1.73335e-21
2.25102e-20
-1.24908e-21
2.26714e-20
-7.52315e-22
2.27244e-20
-2.46931e-22
2.26699e-20
2.6133e-22
2.25071e-20
7.67663e-22
2.22357e-20
1.26512e-21
2.18551e-20
1.74969e-21
2.13694e-20
2.21993e-21
2.07826e-20
2.67535e-21
2.01002e-20
3.11162e-21
1.93266e-20
3.52554e-21
1.84681e-20
3.91269e-21
1.75302e-20
4.27045e-21
1.65208e-20
4.59435e-21
1.54477e-20
4.88153e-21
1.43198e-20
5.12888e-21
1.31463e-20
5.33296e-21
1.19379e-20
5.48931e-21
1.07062e-20
5.59491e-21
9.46379e-21
5.64556e-21
8.22355e-21
5.63614e-21
7.00008e-21
5.56195e-21
5.81176e-21
5.42035e-21
4.67442e-21
5.20041e-21
3.60377e-21
4.89508e-21
2.62804e-21
4.51004e-21
1.76045e-21
4.02009e-21
1.03179e-21
3.39987e-21
4.90742e-22
2.66348e-21
1.35474e-22
1.75645e-21
6.88628e-22
1.23792e-22
-8.10677e-22
4.02142e-22
-2.08858e-21
9.00761e-22
-3.19348e-21
1.53973e-21
-4.08709e-21
2.31429e-21
-4.82841e-21
3.19752e-21
-5.4226e-21
4.17011e-21
-5.89919e-21
5.20833e-21
-6.26329e-21
6.29513e-21
-6.52523e-21
7.41391e-21
-6.6985e-21
8.5469e-21
-6.78678e-21
9.68172e-21
-6.79608e-21
1.08072e-20
-6.73354e-21
1.19112e-20
-6.60421e-21
1.29833e-20
-6.41214e-21
1.40139e-20
-6.16294e-21
1.49937e-20
-5.86071e-21
1.59149e-20
-5.51066e-21
1.67702e-20
-5.11661e-21
1.75532e-20
-4.68335e-21
1.82578e-20
-4.21494e-21
1.88787e-20
-3.71594e-21
1.94111e-20
-3.18997e-21
1.98513e-20
-2.64195e-21
2.01951e-20
-2.07515e-21
2.04409e-20
-1.49297e-21
2.05877e-20
-8.97816e-22
2.06363e-20
-2.94388e-22
2.05865e-20
3.12108e-22
2.04388e-20
9.15395e-22
2.01919e-20
1.50989e-21
1.98462e-20
2.09124e-21
1.94034e-20
2.65655e-21
1.8869e-20
3.20288e-21
1.82468e-20
3.72642e-21
1.75418e-20
4.22297e-21
1.67586e-20
4.68834e-21
1.59037e-20
5.11812e-21
1.49827e-20
5.50855e-21
1.40037e-20
5.85501e-21
1.29752e-20
6.15339e-21
1.19059e-20
6.39899e-21
1.08043e-20
6.58815e-21
9.6814e-21
6.71535e-21
8.54844e-21
6.77571e-21
7.41832e-21
6.76435e-21
6.30515e-21
6.67546e-21
5.22322e-21
6.49978e-21
4.18967e-21
6.23497e-21
3.22314e-21
5.87403e-21
2.33665e-21
5.39148e-21
1.56257e-21
4.7902e-21
9.19657e-22
4.06512e-21
4.14828e-22
3.16062e-21
1.02008e-22
2.0738e-21
7.91005e-22
8.72117e-23
-8.92778e-22
3.64418e-22
-2.35412e-21
7.92036e-22
-3.61129e-21
1.36362e-21
-4.65419e-21
2.04909e-21
-5.51423e-21
2.83761e-21
-6.21033e-21
3.70613e-21
-6.76553e-21
4.63607e-21
-7.1897e-21
5.61159e-21
-7.49732e-21
6.61665e-21
-7.70023e-21
7.63626e-21
-7.8035e-21
8.65889e-21
-7.816e-21
9.67317e-21
-7.74493e-21
1.06683e-20
-7.5959e-21
1.16351e-20
-7.37508e-21
1.2564e-20
-7.08822e-21
1.34474e-20
-6.74072e-21
1.42777e-20
-6.33779e-21
1.50486e-20
-5.88449e-21
1.57539e-20
-5.38592e-21
1.63886e-20
-4.84711e-21
1.69476e-20
-4.27274e-21
1.7427e-20
-3.66766e-21
1.78229e-20
-3.03655e-21
1.81326e-20
-2.38375e-21
1.8354e-20
-1.71342e-21
1.84867e-20
-1.02961e-21
1.85307e-20
-3.37202e-22
1.84859e-20
3.57784e-22
1.8352e-20
1.04941e-21
1.81291e-20
1.73186e-21
1.78175e-20
2.40015e-21
1.74198e-20
3.05065e-21
1.69388e-20
3.67938e-21
1.63783e-20
4.28192e-21
1.57427e-20
4.85342e-21
1.50368e-20
5.3894e-21
1.42655e-20
5.88468e-21
1.34353e-20
6.33462e-21
1.25529e-20
6.7344e-21
1.16257e-20
7.07883e-21
1.06611e-20
7.36273e-21
9.66809e-21
7.58075e-21
8.65591e-21
7.72719e-21
7.63542e-21
7.79655e-21
6.6182e-21
7.78209e-21
5.61663e-21
7.67676e-21
4.645e-21
7.47553e-21
3.71888e-21
7.1668e-21
2.85301e-21
6.73663e-21
2.06784e-21
6.18674e-21
1.37481e-21
5.49576e-21
7.96555e-22
4.6299e-21
3.74318e-22
3.59331e-21
1.03148e-22
2.34781e-21
8.94205e-22
7.904e-23
-9.68527e-22
3.21495e-22
-2.58885e-21
6.94134e-22
-3.97948e-21
1.19098e-21
-5.15072e-21
1.79257e-21
-6.11663e-21
2.48491e-21
-6.9037e-21
3.24966e-21
-7.53099e-21
4.07117e-21
-8.01189e-21
4.93468e-21
-8.36098e-21
5.82461e-21
-8.59017e-21
6.72889e-21
-8.70808e-21
7.63662e-21
-8.72386e-21
8.53725e-21
-8.64519e-21
9.42148e-21
-8.47926e-21
1.02804e-20
-8.23307e-21
1.1106e-20
-7.91288e-21
1.18909e-20
-7.52497e-21
1.26288e-20
-7.07505e-21
1.33136e-20
-6.56902e-21
1.39402e-20
-6.01221e-21
1.45039e-20
-5.41037e-21
1.50004e-20
-4.76884e-21
1.54259e-20
-4.09299e-21
1.57773e-20
-3.38774e-21
1.60521e-20
-2.6585e-21
1.62488e-20
-1.90991e-21
1.63668e-20
-1.14724e-21
1.6406e-20
-3.75887e-22
1.63661e-20
3.9819e-22
1.62472e-20
1.16887e-21
1.6049e-20
1.93003e-21
1.57724e-20
2.67645e-21
1.54192e-20
3.40324e-21
1.49919e-20
4.1056e-21
1.44939e-20
4.7786e-21
1.3929e-20
5.41712e-21
1.33016e-20
6.01573e-21
1.26161e-20
6.56919e-21
1.18782e-20
7.07198e-21
1.10939e-20
7.51879e-21
1.02696e-20
7.90378e-21
9.41261e-21
8.22109e-21
8.53043e-21
8.46444e-21
7.63158e-21
8.62775e-21
6.72562e-21
8.70421e-21
5.82304e-21
8.68697e-21
4.93564e-21
8.56835e-21
4.07589e-21
8.33814e-21
3.25713e-21
7.98837e-21
2.49467e-21
7.51137e-21
1.80177e-21
6.88344e-21
1.19878e-21
6.09425e-21
7.0115e-22
5.14005e-21
3.14175e-22
3.97592e-21
7.77005e-23
2.58406e-21
9.7197e-22
7.52347e-23
-1.04214e-21
2.7318e-22
-2.78692e-21
5.94578e-22
-4.30098e-21
1.02113e-21
-5.578e-21
1.54106e-21
-6.63864e-21
2.13998e-21
-7.50513e-21
2.80167e-21
-8.19564e-21
3.51361e-21
-8.72664e-21
4.2634e-21
-9.11274e-21
5.03723e-21
-9.36602e-21
5.82458e-21
-9.49734e-21
6.61527e-21
-9.51618e-21
7.40035e-21
-9.43132e-21
8.17126e-21
-9.25098e-21
8.92016e-21
-8.98268e-21
9.64013e-21
-8.63352e-21
1.03248e-20
-8.21031e-21
1.09684e-20
-7.71942e-21
1.15657e-20
-7.16706e-21
1.21121e-20
-6.55937e-21
1.26036e-20
-5.90251e-21
1.30364e-20
-5.20213e-21
1.34073e-20
-4.4642e-21
1.37136e-20
-3.69442e-21
1.39531e-20
-2.89851e-21
1.41248e-20
-2.08193e-21
1.42277e-20
-1.25035e-21
1.42617e-20
-4.09715e-22
1.42266e-20
4.33787e-22
1.41225e-20
1.27379e-21
1.39494e-20
2.10413e-21
1.37082e-20
2.9188e-21
1.34003e-20
3.71228e-21
1.30278e-20
4.47909e-21
1.25938e-20
5.21382e-21
1.21013e-20
5.91072e-21
1.1554e-20
6.56407e-21
1.09563e-20
7.16814e-21
1.03126e-20
7.71698e-21
9.62833e-21
8.20457e-21
8.9093e-21
8.62462e-21
8.16168e-21
8.97059e-21
7.39224e-21
9.23586e-21
6.60856e-21
9.41349e-21
5.81907e-21
9.49613e-21
5.03338e-21
9.47551e-21
4.26183e-21
9.34281e-21
3.51525e-21
9.08996e-21
2.80538e-21
8.70498e-21
2.14607e-21
8.17216e-21
1.55131e-21
7.48532e-21
1.02845e-21
6.62712e-21
5.93253e-22
5.56552e-21
2.75225e-22
4.29367e-21
7.3867e-23
2.78633e-21
1.04579e-21
5.99161e-23
-1.10359e-21
2.27734e-22
-2.95575e-21
4.98032e-22
-4.57246e-21
8.57603e-22
-5.93948e-21
1.29638e-21
-7.07955e-21
1.80103e-21
-8.01253e-21
2.36017e-21
-8.75762e-21
2.9632e-21
-9.33157e-21
3.59812e-21
-9.74947e-21
4.25449e-21
-1.00242e-20
4.92322e-21
-1.01676e-20
5.59548e-21
-1.01894e-20
6.26308e-21
-1.00997e-20
6.91867e-21
-9.90729e-21
7.55583e-21
-9.62041e-21
8.1685e-21
-9.24665e-21
8.75107e-21
-8.79331e-21
9.29866e-21
-8.26738e-21
9.80687e-21
-7.67566e-21
1.02718e-20
-7.02472e-21
1.06899e-20
-6.32083e-21
1.1058e-20
-5.57049e-21
1.13734e-20
-4.77998e-21
1.16339e-20
-3.95546e-21
1.18376e-20
-3.10289e-21
1.19836e-20
-2.2284e-21
1.20712e-20
-1.33808e-21
1.21002e-20
-4.38244e-22
1.20701e-20
4.64497e-22
1.19812e-20
1.36366e-21
1.18337e-20
2.2526e-21
1.16283e-20
3.12519e-21
1.13663e-20
3.97529e-21
1.10495e-20
4.79693e-21
1.06802e-20
5.58407e-21
1.02612e-20
6.33075e-21
9.79541e-21
7.03078e-21
9.28667e-21
7.67788e-21
8.73892e-21
8.2658e-21
8.15662e-21
8.78802e-21
7.54461e-21
9.23773e-21
6.90833e-21
9.60806e-21
6.25369e-21
9.89177e-21
5.58728e-21
1.00812e-20
4.91635e-21
1.01684e-20
4.24905e-21
1.01447e-20
3.59471e-21
1.00009e-20
2.96235e-21
9.72553e-21
2.36175e-21
9.30762e-21
1.80526e-21
8.73698e-21
1.30254e-21
7.9938e-21
8.6454e-22
7.06044e-21
5.0351e-22
5.92878e-21
2.268e-22
4.56872e-21
5.58491e-23
2.95363e-21
1.10156e-21
4.71511e-23
-1.15066e-21
1.84613e-22
-3.09492e-21
4.04634e-22
-4.79399e-21
6.97987e-22
-6.23449e-21
1.05518e-21
-7.43867e-21
1.46683e-21
-8.426e-21
1.92434e-21
-9.2164e-21
2.41795e-21
-9.82635e-21
2.93811e-21
-1.02708e-20
3.47665e-21
-1.05635e-20
4.02554e-21
-1.07169e-20
4.57756e-21
-1.07415e-20
5.12592e-21
-1.06481e-20
5.66474e-21
-1.04461e-20
6.1884e-21
-1.01441e-20
6.69203e-21
-9.75011e-21
7.17092e-21
-9.27202e-21
7.62119e-21
-8.71742e-21
8.03902e-21
-8.09328e-21
8.42125e-21
-7.40668e-21
8.76491e-21
-6.66433e-21
9.06751e-21
-5.87316e-21
9.32669e-21
-5.03943e-21
9.54063e-21
-4.16987e-21
9.70798e-21
-3.27076e-21
9.82793e-21
-2.34869e-21
9.9e-21
-1.41002e-21
9.92389e-21
-4.61567e-22
9.89923e-21
4.89944e-22
9.82604e-21
1.43762e-21
9.70448e-21
2.37474e-21
9.5353e-21
3.29469e-21
9.31974e-21
4.19114e-21
9.05917e-21
5.05774e-21
8.75542e-21
5.88805e-21
8.4107e-21
6.67563e-21
8.02771e-21
7.41397e-21
7.60932e-21
8.09654e-21
7.15888e-21
8.71658e-21
6.68e-21
9.26718e-21
6.17678e-21
9.74131e-21
5.65369e-21
1.01315e-20
5.11566e-21
1.04302e-20
4.56817e-21
1.06291e-20
4.01721e-21
1.07201e-20
3.46983e-21
1.06935e-20
2.93351e-21
1.05387e-20
2.41572e-21
1.02461e-20
1.92505e-21
9.80335e-21
1.47028e-21
9.19348e-21
1.06167e-21
8.40445e-21
7.04598e-22
7.42373e-21
4.06747e-22
6.22156e-21
1.85417e-22
4.78258e-21
4.94489e-23
3.09112e-21
1.15098e-21
3.70874e-23
-1.18858e-21
1.43451e-22
-3.20151e-21
3.13299e-22
-4.96463e-21
5.40452e-22
-6.46263e-21
8.17522e-22
-7.71701e-21
1.13798e-21
-8.74747e-21
1.49396e-21
-9.57334e-21
1.87784e-21
-1.02112e-20
2.28286e-21
-1.06764e-20
2.70254e-21
-1.09835e-20
3.13073e-21
-1.11449e-20
3.56133e-21
-1.1172e-20
3.98918e-21
-1.10759e-20
4.40978e-21
-1.08666e-20
4.81872e-21
-1.05527e-20
5.21192e-21
-1.0143e-20
5.58587e-21
-9.64567e-21
5.93738e-21
-9.06862e-21
6.26367e-21
-8.41922e-21
6.56215e-21
-7.70482e-21
6.8305e-21
-6.9325e-21
7.06658e-21
-6.10919e-21
7.26884e-21
-5.24193e-21
7.43589e-21
-4.33732e-21
7.5667e-21
-3.40204e-21
7.66051e-21
-2.44264e-21
7.71688e-21
-1.466e-21
7.73529e-21
-4.79304e-22
7.71566e-21
5.10223e-22
7.65817e-21
1.49557e-21
7.56305e-21
2.47008e-21
7.43084e-21
3.42705e-21
7.26233e-21
4.35977e-21
7.05865e-21
5.26145e-21
6.82127e-21
6.12537e-21
6.55199e-21
6.94487e-21
6.25281e-21
7.71317e-21
5.92601e-21
8.42342e-21
5.57414e-21
9.06852e-21
5.20009e-21
9.64135e-21
4.80707e-21
1.01345e-20
4.39857e-21
1.05402e-20
3.9785e-21
1.08505e-20
3.55128e-21
1.10567e-20
3.12169e-21
1.11501e-20
2.69489e-21
1.1121e-20
2.27744e-21
1.09587e-20
1.87508e-21
1.06515e-20
1.49318e-21
1.01853e-20
1.14112e-21
9.54992e-21
8.24803e-22
8.72848e-21
5.46444e-22
7.6973e-21
3.16899e-22
6.44651e-21
1.45337e-22
4.95702e-21
3.61349e-23
3.19463e-21
1.1869e-21
2.65468e-23
-1.21455e-21
1.02034e-22
-3.2776e-21
2.23697e-22
-5.08622e-21
3.8608e-22
-6.62548e-21
5.84298e-22
-7.91579e-21
8.13192e-22
-8.97711e-21
1.06721e-21
-9.82829e-21
1.34148e-21
-1.04862e-20
1.63139e-21
-1.09667e-20
1.93176e-21
-1.12839e-20
2.23825e-21
-1.14514e-20
2.54649e-21
-1.14801e-20
2.85308e-21
-1.13823e-20
3.15445e-21
-1.11678e-20
3.44747e-21
-1.08455e-20
3.72915e-21
-1.04245e-20
3.99709e-21
-9.91343e-21
4.24888e-21
-9.32024e-21
4.48264e-21
-8.65275e-21
4.69638e-21
-7.91831e-21
4.88855e-21
-7.12451e-21
5.05763e-21
-6.27835e-21
5.20263e-21
-5.38697e-21
5.32237e-21
-4.45709e-21
5.41623e-21
-3.49563e-21
5.48349e-21
-2.5094e-21
5.52378e-21
-1.50581e-21
5.53675e-21
-4.92047e-22
5.52244e-21
5.24651e-22
5.48083e-21
1.5372e-21
5.41234e-21
2.5387e-21
5.31736e-21
3.5222e-21
5.19641e-21
4.48078e-21
5.05034e-21
5.40754e-21
4.88007e-21
6.29565e-21
4.68696e-21
7.13802e-21
4.4724e-21
7.92784e-21
4.23806e-21
8.65783e-21
3.9858e-21
9.3209e-21
3.71767e-21
9.90963e-21
3.43599e-21
1.04164e-20
3.14326e-21
1.08332e-20
2.84229e-21
1.11518e-20
2.53626e-21
1.1363e-20
2.2288e-21
1.1458e-20
1.92368e-21
1.14275e-20
1.62562e-21
1.12582e-20
1.33807e-21
1.09402e-20
1.06654e-21
1.04615e-20
8.15747e-22
9.80422e-21
5.8953e-22
8.95223e-21
3.94549e-22
7.89686e-21
2.28906e-22
6.61169e-21
1.00592e-22
5.07232e-21
2.48843e-23
3.27159e-21
1.21173e-21
1.55119e-23
-1.23083e-21
6.18834e-23
-3.32298e-21
1.35645e-22
-5.15952e-21
2.33727e-22
-6.72337e-21
3.53154e-22
-8.03532e-21
4.90582e-22
-9.11504e-21
6.43033e-22
-9.98134e-21
8.07842e-22
-1.06514e-20
9.82311e-22
-1.11414e-20
1.16358e-21
-1.1465e-20
1.34733e-21
-1.16349e-20
1.53253e-21
-1.16652e-20
1.71747e-21
-1.15671e-20
1.89909e-21
-1.13491e-20
2.07519e-21
-1.10213e-20
2.24452e-21
-1.05936e-20
2.40556e-21
-1.00743e-20
2.55699e-21
-9.4715e-21
2.69752e-21
-8.79304e-21
2.82604e-21
-8.04664e-21
2.94141e-21
-7.2398e-21
3.04306e-21
-6.37966e-21
3.13015e-21
-5.47346e-21
3.20239e-21
-4.52825e-21
3.25911e-21
-3.5511e-21
3.2998e-21
-2.5491e-21
3.32379e-21
-1.52955e-21
3.33109e-21
-4.99667e-22
3.32185e-21
5.33233e-22
3.29649e-21
1.56212e-21
3.25513e-21
2.57987e-21
3.19782e-21
3.57946e-21
3.12475e-21
4.55376e-21
3.03653e-21
5.49571e-21
2.93382e-21
6.3983e-21
2.81742e-21
7.25446e-21
2.68811e-21
8.05713e-21
2.54692e-21
8.79905e-21
2.39496e-21
9.47287e-21
2.23359e-21
1.0071e-20
2.06413e-21
1.05858e-20
1.88821e-21
1.10093e-20
1.70701e-21
1.13332e-20
1.5225e-21
1.15477e-20
1.33776e-21
1.1643e-20
1.15531e-21
1.16103e-20
9.7627e-22
1.14391e-20
8.04609e-22
1.11151e-20
6.41865e-22
1.06235e-20
4.92946e-22
9.95429e-21
3.60684e-22
9.09427e-21
2.39022e-22
8.01375e-21
1.3791e-22
6.70236e-21
6.71993e-23
5.14848e-21
1.7416e-23
3.31341e-21
1.22878e-21
5.85502e-24
-1.23581e-21
2.19093e-23
-3.33908e-21
4.82199e-23
-5.18494e-21
8.2491e-23
-6.75663e-21
1.23072e-22
-8.07569e-21
1.69422e-22
-9.16143e-21
2.20521e-22
-1.00326e-20
2.75577e-22
-1.07066e-20
3.33533e-22
-1.1199e-20
3.93687e-22
-1.15248e-20
4.56215e-22
-1.16972e-20
5.21334e-22
-1.17299e-20
5.83737e-22
-1.16291e-20
6.43308e-22
-1.14083e-20
7.01775e-22
-1.10795e-20
7.58349e-22
-1.06499e-20
8.12185e-22
-1.01279e-20
8.62785e-22
-9.52183e-21
9.09674e-22
-8.83972e-21
9.52495e-22
-8.08925e-21
9.90921e-22
-7.27778e-21
1.02477e-21
-6.41281e-21
1.05402e-21
-5.50154e-21
1.07858e-21
-4.5511e-21
1.09788e-21
-3.56871e-21
1.11152e-21
-2.56169e-21
1.11915e-21
-1.53716e-21
1.12092e-21
-5.02231e-22
1.11711e-21
5.36002e-22
1.10805e-21
1.57046e-21
1.09376e-21
2.59382e-21
1.07415e-21
3.59888e-21
1.04929e-21
4.57845e-21
1.01927e-21
5.52554e-21
9.84495e-22
6.43296e-21
9.45055e-22
7.29383e-21
9.01393e-22
8.10073e-21
8.53744e-22
8.8466e-21
8.02562e-22
9.52388e-21
7.48315e-22
1.01252e-20
6.91611e-22
1.06426e-20
6.3314e-22
1.10678e-20
5.73814e-22
1.13924e-20
5.11731e-22
1.16097e-20
4.47042e-22
1.17077e-20
3.85739e-22
1.16725e-20
3.27694e-22
1.14979e-20
2.72083e-22
1.11704e-20
2.20015e-22
1.06797e-20
1.71772e-22
1.0007e-20
1.27396e-22
9.13282e-21
9.10835e-23
8.05206e-21
5.52116e-23
6.74091e-21
1.85523e-23
5.16705e-21
2.35645e-24
3.33037e-21
1.23106e-21
-4.41369e-24
-1.23211e-21
-1.70195e-23
-3.32455e-21
-3.83139e-23
-5.16155e-21
-6.85629e-23
-6.72528e-21
-1.06362e-22
-8.03702e-21
-1.51014e-22
-9.11647e-21
-2.01163e-22
-9.98242e-21
-2.55102e-22
-1.06523e-20
-3.11644e-22
-1.11419e-20
-3.70447e-22
-1.14655e-20
-4.31742e-22
-1.16353e-20
-4.95656e-22
-1.16655e-20
-5.56936e-22
-1.15672e-20
-6.15495e-22
-1.13492e-20
-6.73125e-22
-1.10214e-20
-7.28992e-22
-1.05936e-20
-7.8229e-22
-1.00742e-20
-8.32538e-22
-9.47128e-21
-8.79271e-22
-8.79262e-21
-9.22201e-22
-8.04597e-21
-9.60793e-22
-7.23874e-21
-9.94742e-22
-6.37824e-21
-1.02351e-21
-5.47149e-21
-1.04721e-21
-4.52601e-21
-1.06565e-21
-3.54888e-21
-1.07925e-21
-2.54748e-21
-1.08783e-21
-1.52863e-21
-1.09141e-21
-4.99397e-22
-1.08942e-21
5.3348e-22
-1.08202e-21
1.56256e-21
-1.06907e-21
2.58072e-21
-1.05095e-21
3.58047e-21
-1.02756e-21
4.55494e-21
-9.99285e-22
5.49701e-21
-9.66075e-22
6.39977e-21
-9.28408e-22
7.25598e-21
-8.86326e-22
8.0586e-21
-8.40362e-22
8.80034e-21
-7.90622e-22
9.47406e-21
-7.37766e-22
1.00721e-20
-6.82065e-22
1.05868e-20
-6.24559e-22
1.101e-20
-5.65918e-22
1.13336e-20
-5.0445e-22
1.15479e-20
-4.39895e-22
1.1643e-20
-3.77851e-22
1.16098e-20
-3.17251e-22
1.14384e-20
-2.58209e-22
1.11144e-20
-2.02362e-22
1.06221e-20
-1.48324e-22
9.95219e-21
-9.82157e-23
9.09321e-21
-6.45023e-23
8.01291e-21
-3.80448e-23
6.69891e-21
-1.04277e-23
5.14705e-21
-1.67152e-24
3.31193e-21
1.22895e-21
-1.51598e-23
-1.21564e-21
-5.66412e-23
-3.28095e-21
-1.2558e-22
-5.09045e-21
-2.19536e-22
-6.62894e-21
-3.36333e-22
-7.91893e-21
-4.72383e-22
-8.97964e-21
-6.24113e-22
-9.83015e-21
-7.88053e-22
-1.04878e-20
-9.61424e-22
-1.09678e-20
-1.14134e-21
-1.12847e-20
-1.32378e-21
-1.14521e-20
-1.50796e-21
-1.14805e-20
-1.69189e-21
-1.13825e-20
-1.87248e-21
-1.11679e-20
-2.04772e-21
-1.08454e-20
-2.2163e-21
-1.04243e-20
-2.37684e-21
-9.91303e-21
-2.52781e-21
-9.3196e-21
-2.6681e-21
-8.65185e-21
-2.79638e-21
-7.91712e-21
-2.91189e-21
-7.12276e-21
-3.01345e-21
-6.27582e-21
-3.10063e-21
-5.38363e-21
-3.1725e-21
-4.45325e-21
-3.229e-21
-3.49191e-21
-3.2696e-21
-2.50644e-21
-3.29441e-21
-1.5038e-21
-3.30288e-21
-4.90739e-22
-3.29526e-21
5.25716e-22
-3.27112e-21
1.53847e-21
-3.23106e-21
2.54037e-21
-3.17496e-21
3.52436e-21
-3.10364e-21
4.48335e-21
-3.01699e-21
5.41042e-21
-2.91616e-21
6.29864e-21
-2.80125e-21
7.14101e-21
-2.67372e-21
7.93071e-21
-2.53401e-21
8.66052e-21
-2.38364e-21
9.32329e-21
-2.2234e-21
9.91167e-21
-2.05516e-21
1.04181e-20
-1.88e-21
1.08345e-20
-1.69961e-21
1.11527e-20
-1.51559e-21
1.13633e-20
-1.33118e-21
1.14577e-20
-1.14775e-21
1.14269e-20
-9.66375e-22
1.12568e-20
-7.91106e-22
1.09374e-20
-6.24132e-22
1.04595e-20
-4.70196e-22
9.80294e-21
-3.3347e-22
8.94683e-21
-2.11158e-22
7.89147e-21
-1.182e-22
6.61076e-21
-6.28501e-23
5.06884e-21
-1.89117e-23
3.26893e-21
1.20995e-21
-2.42878e-23
-1.19117e-21
-9.59596e-23
-3.20557e-21
-2.12747e-22
-4.96925e-21
-3.72068e-22
-6.46691e-21
-5.68056e-22
-7.72074e-21
-7.95673e-22
-8.75055e-21
-1.04928e-21
-9.57545e-21
-1.32324e-21
-1.02128e-20
-1.61214e-21
-1.06776e-20
-1.9115e-21
-1.09841e-20
-2.2169e-21
-1.11453e-20
-2.5241e-21
-1.11721e-20
-2.82965e-21
-1.10757e-20
-3.13029e-21
-1.08661e-20
-3.42234e-21
-1.05521e-20
-3.70341e-21
-1.01421e-20
-3.97058e-21
-9.64457e-21
-4.22209e-21
-9.06715e-21
-4.45534e-21
-8.41746e-21
-4.66904e-21
-7.70262e-21
-4.8609e-21
-6.92987e-21
-5.03004e-21
-6.10602e-21
-5.17482e-21
-5.23816e-21
-5.29486e-21
-4.33296e-21
-5.38884e-21
-3.39757e-21
-5.45664e-21
-2.43849e-21
-5.49723e-21
-1.46275e-21
-5.51089e-21
-4.76689e-22
-5.49718e-21
5.12545e-22
-5.45687e-21
1.49831e-21
-5.38962e-21
2.47323e-21
-5.2962e-21
3.43074e-21
-5.17664e-21
4.36369e-21
-5.0322e-21
5.26566e-21
-4.86349e-21
6.12964e-21
-4.67216e-21
6.94925e-21
-4.45915e-21
7.71728e-21
-4.22641e-21
8.4272e-21
-3.97541e-21
9.07172e-21
-3.70854e-21
9.6441e-21
-3.42782e-21
1.01366e-20
-3.136e-21
1.05418e-20
-2.83571e-21
1.08512e-20
-2.53027e-21
1.10568e-20
-2.22291e-21
1.11493e-20
-1.9171e-21
1.1119e-20
-1.61649e-21
1.09561e-20
-1.32507e-21
1.06496e-20
-1.05033e-21
1.01806e-20
-7.93234e-22
9.54236e-21
-5.60057e-22
8.72643e-21
-3.69968e-22
7.69396e-21
-2.15376e-22
6.43524e-21
-8.86493e-23
4.95149e-21
-2.15083e-23
3.18954e-21
1.18783e-21
-3.61001e-23
-1.15316e-21
-1.36479e-22
-3.09945e-21
-3.02345e-22
-4.7994e-21
-5.26218e-22
-6.2386e-21
-8.02276e-22
-7.44167e-21
-1.12215e-21
-8.42876e-21
-1.47797e-21
-9.21812e-21
-1.86176e-21
-9.82738e-21
-2.26644e-21
-1.02713e-20
-2.6853e-21
-1.05636e-20
-3.11253e-21
-1.07165e-20
-3.54212e-21
-1.0741e-20
-3.96929e-21
-1.06472e-20
-4.38905e-21
-1.0445e-20
-4.79722e-21
-1.01426e-20
-5.18958e-21
-9.74827e-21
-5.56295e-21
-9.26983e-21
-5.91395e-21
-8.71491e-21
-6.23983e-21
-8.09039e-21
-6.53787e-21
-7.40354e-21
-6.80586e-21
-6.66076e-21
-7.04201e-21
-5.86923e-21
-7.24444e-21
-5.03515e-21
-7.41195e-21
-4.16545e-21
-7.54312e-21
-3.26622e-21
-7.63738e-21
-2.34425e-21
-7.69381e-21
-1.40562e-21
-7.71267e-21
-4.57378e-22
-7.69342e-21
4.94075e-22
-7.63675e-21
1.44169e-21
-7.5424e-21
2.37919e-21
-7.41158e-21
3.29952e-21
-7.24433e-21
4.19651e-21
-7.04248e-21
5.06327e-21
-6.80655e-21
5.89376e-21
-6.53916e-21
6.68113e-21
-6.24131e-21
7.41916e-21
-5.91615e-21
8.10108e-21
-5.56533e-21
8.72044e-21
-5.19258e-21
9.27013e-21
-4.80023e-21
9.74337e-21
-4.39277e-21
1.01326e-20
-3.9731e-21
1.04303e-20
-3.54654e-21
1.06281e-20
-3.11705e-21
1.0718e-20
-2.68957e-21
1.06911e-20
-2.26909e-21
1.05354e-20
-1.86388e-21
1.02393e-20
-1.47704e-21
9.79842e-21
-1.12015e-21
9.19152e-21
-8.01924e-22
8.39232e-21
-5.18487e-22
7.41022e-21
-2.94646e-22
6.21901e-21
-1.46004e-22
4.77383e-21
-4.19988e-23
3.0848e-21
1.14564e-21
-4.52031e-23
-1.10627e-21
-1.77925e-22
-2.96174e-21
-3.92335e-22
-4.57763e-21
-6.83455e-22
-5.94283e-21
-1.04065e-21
-7.08149e-21
-1.45313e-21
-8.01382e-21
-1.9115e-21
-8.75827e-21
-2.4052e-21
-9.33214e-21
-2.92545e-21
-9.7498e-21
-3.46323e-21
-1.0024e-20
-4.01178e-21
-1.01669e-20
-4.56273e-21
-1.01886e-20
-5.11073e-21
-1.00986e-20
-5.64833e-21
-9.9059e-21
-6.17175e-21
-9.61858e-21
-6.67405e-21
-9.24434e-21
-7.15307e-21
-8.79066e-21
-7.60202e-21
-8.26433e-21
-8.02026e-21
-7.67228e-21
-8.40116e-21
-7.02092e-21
-8.74546e-21
-6.31695e-21
-9.04682e-21
-5.56643e-21
-9.3072e-21
-4.77578e-21
-9.52061e-21
-3.951e-21
-9.68987e-21
-3.09829e-21
-9.80923e-21
-2.22359e-21
-9.88269e-21
-1.33323e-21
-9.90505e-21
-4.33385e-22
-9.88151e-21
4.6946e-22
-9.80714e-21
1.36887e-21
-9.68764e-21
2.25836e-21
-9.5183e-21
3.13163e-21
-9.30538e-21
3.98241e-21
-9.0449e-21
4.80451e-21
-8.74409e-21
5.59173e-21
-8.39975e-21
6.33804e-21
-8.01958e-21
7.03755e-21
-7.60136e-21
7.68382e-21
-7.15321e-21
8.27061e-21
-6.67405e-21
8.79142e-21
-6.17269e-21
9.23982e-21
-5.64916e-21
9.60873e-21
-5.11259e-21
9.89121e-21
-4.56462e-21
1.00796e-20
-4.01428e-21
1.01662e-20
-3.46527e-21
1.01406e-20
-2.9276e-21
9.99559e-21
-2.40461e-21
9.72237e-21
-1.91107e-21
9.30045e-21
-1.45196e-21
8.72212e-21
-1.03272e-21
7.98985e-21
-6.84355e-22
7.05544e-21
-3.98752e-22
5.90619e-21
-1.69154e-22
4.55567e-21
-4.19384e-23
2.9431e-21
1.10295e-21
-5.76348e-23
-1.04663e-21
-2.199e-22
-2.79151e-21
-4.8664e-22
-4.30524e-21
-8.44741e-22
-5.58054e-21
-1.28338e-21
-6.63955e-21
-1.79011e-21
-7.50568e-21
-2.35105e-21
-8.19617e-21
-2.95506e-21
-8.72751e-21
-3.58993e-21
-9.11364e-21
-4.24673e-21
-9.36693e-21
-4.91462e-21
-9.49801e-21
-5.58669e-21
-9.51665e-21
-6.25302e-21
-9.4314e-21
-6.90865e-21
-9.25087e-21
-7.54435e-21
-8.98206e-21
-8.15704e-21
-8.63263e-21
-8.73818e-21
-8.20869e-21
-9.28636e-21
-7.71753e-21
-9.79318e-21
-7.16463e-21
-1.02588e-20
-6.55687e-21
-1.06755e-20
-5.89949e-21
-1.10446e-20
-5.19912e-21
-1.13589e-20
-4.46087e-21
-1.16208e-20
-3.69112e-21
-1.18239e-20
-2.89465e-21
-1.19714e-20
-2.07805e-21
-1.20578e-20
-1.24583e-21
-1.20877e-20
-4.05048e-22
-1.20562e-20
4.39236e-22
-1.19683e-20
1.27978e-21
-1.18199e-20
2.1115e-21
-1.16164e-20
2.92721e-21
-1.13544e-20
3.7221e-21
-1.10401e-20
4.48924e-21
-1.06712e-20
5.22431e-21
-1.02546e-20
5.92064e-21
-9.78947e-21
6.57364e-21
-9.28293e-21
7.17619e-21
-8.73521e-21
7.724e-21
-8.15435e-21
8.20954e-21
-7.54208e-21
8.62815e-21
-6.90682e-21
8.97239e-21
-6.25185e-21
9.23686e-21
-5.58596e-21
9.41311e-21
-4.91456e-21
9.49457e-21
-4.24674e-21
9.47342e-21
-3.58882e-21
9.34091e-21
-2.95367e-21
9.08264e-21
-2.3497e-21
8.69777e-21
-1.78666e-21
8.17268e-21
-1.28664e-21
7.47081e-21
-8.40447e-22
6.6038e-21
-4.7845e-22
5.56157e-21
-2.32405e-22
4.27901e-21
-6.59847e-23
2.77636e-21
1.03682e-21
-6.90876e-23
-9.75828e-22
-2.64378e-22
-2.58911e-21
-5.83744e-22
-3.98165e-21
-1.01123e-21
-5.14912e-21
-1.53358e-21
-6.1159e-21
-2.13451e-21
-6.90458e-21
-2.79837e-21
-7.53196e-21
-3.5121e-21
-8.01398e-21
-4.26148e-21
-8.36416e-21
-5.03561e-21
-8.59318e-21
-5.82234e-21
-8.71111e-21
-6.61335e-21
-8.72669e-21
-7.39705e-21
-8.64795e-21
-8.16797e-21
-8.48173e-21
-8.91525e-21
-8.23521e-21
-9.6359e-21
-7.91466e-21
-1.03187e-20
-7.52654e-21
-1.09633e-20
-7.07617e-21
-1.15585e-20
-6.56979e-21
-1.21066e-20
-6.01255e-21
-1.25956e-20
-5.41046e-21
-1.30305e-20
-4.7685e-21
-1.33987e-20
-4.09222e-21
-1.37078e-20
-3.38648e-21
-1.39448e-20
-2.65682e-21
-1.41195e-20
-1.9076e-21
-1.42191e-20
-1.14433e-21
-1.42557e-20
-3.7209e-22
-1.42163e-20
4.02896e-22
-1.41148e-20
1.17504e-21
-1.39379e-20
1.93794e-21
-1.37008e-20
2.68647e-21
-1.33906e-20
3.41482e-21
-1.30236e-20
4.11827e-21
-1.25874e-20
4.79142e-21
-1.21002e-20
5.4296e-21
-1.15507e-20
6.02735e-21
-1.09576e-20
6.58041e-21
-1.03115e-20
7.08193e-21
-9.63099e-21
7.52727e-21
-8.90854e-21
7.91051e-21
-8.16362e-21
8.22684e-21
-7.39097e-21
8.46914e-21
-6.61001e-21
8.63201e-21
-5.81774e-21
8.70796e-21
-5.03306e-21
8.68963e-21
-4.25778e-21
8.56828e-21
-3.50987e-21
8.34011e-21
-2.79356e-21
7.98816e-21
-2.13331e-21
7.49827e-21
-1.52877e-21
6.87964e-21
-1.01264e-21
6.09678e-21
-5.9411e-22
5.11462e-21
-2.55904e-22
3.95958e-21
-6.20249e-23
2.57175e-21
9.74325e-22
-7.89262e-23
-8.93687e-22
-3.12235e-22
-2.35287e-21
-6.846e-22
-3.60457e-21
-1.18455e-21
-4.64764e-21
-1.79122e-21
-5.50884e-21
-2.48682e-21
-6.20759e-21
-3.25498e-21
-6.76394e-21
-4.07697e-21
-7.19075e-21
-4.9409e-21
-7.5004e-21
-5.82981e-21
-7.70244e-21
-6.73536e-21
-7.80656e-21
-7.64119e-21
-7.8189e-21
-8.54304e-21
-7.748e-21
-9.42453e-21
-7.59834e-21
-1.02851e-20
-7.3784e-21
-1.11073e-20
-7.09072e-21
-1.18948e-20