/*--------------------------------*- C++ -*----------------------------------*\
| =========                 |                                                 |
| \\      /  F ield         | OpenFOAM: The Open Source CFD Toolbox           |
|  \\    /   O peration     | Version:  5.0                                   |
|   \\  /    A nd           | Web:      www.OpenFOAM.org                      |
|    \\/     M anipulation  |                                                 |
\*---------------------------------------------------------------------------*/
FoamFile
{
    version     2.0;
    format      ascii;
    class       volVectorField;
    location    "502";
    object      U;
}
// * * * * * * * * * * * * * * * * * * * * * * * * * * * * * * * * * * * * * //

dimensions      [0 1 -1 0 0 0 0];

internalField   nonuniform List<vector> 
1568
(
(4.26307e-18 -1.00387e-17 0)
(3.56568e-17 -2.36631e-17 0)
(9.1798e-17 -3.51166e-17 0)
(1.69172e-16 -4.38589e-17 0)
(2.61376e-16 -5.10164e-17 0)
(3.66469e-16 -5.7091e-17 0)
(4.82108e-16 -6.18495e-17 0)
(6.05864e-16 -6.55253e-17 0)
(7.3579e-16 -6.82318e-17 0)
(8.7004e-16 -6.99984e-17 0)
(1.00685e-15 -7.09024e-17 0)
(1.14459e-15 -7.10037e-17 0)
(1.28179e-15 -7.03598e-17 0)
(1.41705e-15 -6.90206e-17 0)
(1.54906e-15 -6.70372e-17 0)
(1.67663e-15 -6.44551e-17 0)
(1.79864e-15 -6.1324e-17 0)
(1.91407e-15 -5.76892e-17 0)
(2.022e-15 -5.35973e-17 0)
(2.12158e-15 -4.90936e-17 0)
(2.21205e-15 -4.42233e-17 0)
(2.29279e-15 -3.90136e-17 0)
(2.36326e-15 -3.34054e-17 0)
(2.42241e-15 -2.652e-17 0)
(2.47035e-15 -1.91862e-17 0)
(2.50718e-15 -1.26042e-17 0)
(2.53255e-15 -6.36284e-18 0)
(2.54514e-15 -1.69859e-18 0)
(2.54522e-15 1.64692e-18 0)
(2.53278e-15 6.29395e-18 0)
(2.50756e-15 1.25296e-17 0)
(2.47086e-15 1.90972e-17 0)
(2.42305e-15 2.64308e-17 0)
(2.36403e-15 3.33389e-17 0)
(2.29369e-15 3.89532e-17 0)
(2.21306e-15 4.41664e-17 0)
(2.12269e-15 4.90443e-17 0)
(2.0232e-15 5.35526e-17 0)
(1.91535e-15 5.76526e-17 0)
(1.79998e-15 6.12948e-17 0)
(1.67802e-15 6.44336e-17 0)
(1.55049e-15 6.70217e-17 0)
(1.41849e-15 6.90149e-17 0)
(1.28324e-15 7.03637e-17 0)
(1.14602e-15 7.10174e-17 0)
(1.00824e-15 7.09223e-17 0)
(8.71384e-16 7.00245e-17 0)
(7.37083e-16 6.82653e-17 0)
(6.07062e-16 6.55804e-17 0)
(4.8319e-16 6.1887e-17 0)
(3.6751e-16 5.71062e-17 0)
(2.6229e-16 5.11291e-17 0)
(1.69884e-16 4.38554e-17 0)
(9.25515e-17 3.50481e-17 0)
(3.66008e-17 2.35806e-17 0)
(4.79092e-18 9.78649e-18 0)
(1.1547e-18 -2.81905e-17 0)
(3.26169e-17 -6.65909e-17 0)
(8.22206e-17 -9.88956e-17 0)
(1.52628e-16 -1.24756e-16 0)
(2.38217e-16 -1.46039e-16 0)
(3.35748e-16 -1.63319e-16 0)
(4.43135e-16 -1.77104e-16 0)
(5.58362e-16 -1.87747e-16 0)
(6.79366e-16 -1.95499e-16 0)
(8.04357e-16 -2.00578e-16 0)
(9.31749e-16 -2.0317e-16 0)
(1.06004e-15 -2.03465e-16 0)
(1.1878e-15 -2.01616e-16 0)
(1.31372e-15 -1.97769e-16 0)
(1.43661e-15 -1.92072e-16 0)
(1.55535e-15 -1.84669e-16 0)
(1.6689e-15 -1.75688e-16 0)
(1.77631e-15 -1.65263e-16 0)
(1.87673e-15 -1.53524e-16 0)
(1.96936e-15 -1.40602e-16 0)
(2.05348e-15 -1.26622e-16 0)
(2.12847e-15 -1.11724e-16 0)
(2.19377e-15 -9.60688e-17 0)
(2.24898e-15 -7.98383e-17 0)
(2.29395e-15 -6.38278e-17 0)
(2.32826e-15 -4.72996e-17 0)
(2.35162e-15 -2.92969e-17 0)
(2.36333e-15 -9.93995e-18 0)
(2.3634e-15 9.7171e-18 0)
(2.35182e-15 2.90873e-17 0)
(2.3286e-15 4.71085e-17 0)
(2.2944e-15 6.36488e-17 0)
(2.24956e-15 7.96552e-17 0)
(2.19446e-15 9.58937e-17 0)
(2.12927e-15 1.11559e-16 0)
(2.05438e-15 1.26471e-16 0)
(1.97035e-15 1.40469e-16 0)
(1.87781e-15 1.53407e-16 0)
(1.77746e-15 1.65166e-16 0)
(1.6701e-15 1.75612e-16 0)
(1.5566e-15 1.84615e-16 0)
(1.43789e-15 1.92041e-16 0)
(1.31501e-15 1.97764e-16 0)
(1.18909e-15 2.01631e-16 0)
(1.06132e-15 2.03507e-16 0)
(9.33013e-16 2.03238e-16 0)
(8.05567e-16 2.00664e-16 0)
(6.80493e-16 1.95601e-16 0)
(5.59432e-16 1.87868e-16 0)
(4.44157e-16 1.77247e-16 0)
(3.36595e-16 1.63447e-16 0)
(2.38928e-16 1.46121e-16 0)
(1.53362e-16 1.24929e-16 0)
(8.2689e-17 9.89128e-17 0)
(3.29527e-17 6.66265e-17 0)
(1.34627e-18 2.78446e-17 0)
(4.0996e-19 -4.28482e-17 0)
(2.71126e-17 -1.05236e-16 0)
(7.13152e-17 -1.57502e-16 0)
(1.35685e-16 -1.9983e-16 0)
(2.13784e-16 -2.3443e-16 0)
(3.03646e-16 -2.62588e-16 0)
(4.02963e-16 -2.8493e-16 0)
(5.09529e-16 -3.02138e-16 0)
(6.21557e-16 -3.14651e-16 0)
(7.37392e-16 -3.22827e-16 0)
(8.5545e-16 -3.26992e-16 0)
(9.74307e-16 -3.2744e-16 0)
(1.09268e-15 -3.24434e-16 0)
(1.20936e-15 -3.18215e-16 0)
(1.32319e-15 -3.09027e-16 0)
(1.43316e-15 -2.97087e-16 0)
(1.53831e-15 -2.82616e-16 0)
(1.63777e-15 -2.65825e-16 0)
(1.73073e-15 -2.46922e-16 0)
(1.81647e-15 -2.26111e-16 0)
(1.89434e-15 -2.03596e-16 0)
(1.96377e-15 -1.79576e-16 0)
(2.02427e-15 -1.54265e-16 0)
(2.07548e-15 -1.27948e-16 0)
(2.11697e-15 -1.00989e-16 0)
(2.14824e-15 -7.32493e-17 0)
(2.16915e-15 -4.44941e-17 0)
(2.17969e-15 -1.49999e-17 0)
(2.17974e-15 1.46815e-17 0)
(2.16931e-15 4.41824e-17 0)
(2.14852e-15 7.29525e-17 0)
(2.11736e-15 1.00703e-16 0)
(2.07597e-15 1.27675e-16 0)
(2.02485e-15 1.54004e-16 0)
(1.96445e-15 1.79335e-16 0)
(1.89511e-15 2.03373e-16 0)
(1.81731e-15 2.25915e-16 0)
(1.73164e-15 2.46751e-16 0)
(1.63874e-15 2.65684e-16 0)
(1.53933e-15 2.82506e-16 0)
(1.43421e-15 2.9701e-16 0)
(1.32427e-15 3.08984e-16 0)
(1.21045e-15 3.1821e-16 0)
(1.09378e-15 3.24462e-16 0)
(9.75393e-16 3.27508e-16 0)
(8.56498e-16 3.27096e-16 0)
(7.384e-16 3.2296e-16 0)
(6.2253e-16 3.14816e-16 0)
(5.10431e-16 3.02338e-16 0)
(4.03752e-16 2.85129e-16 0)
(3.04347e-16 2.6277e-16 0)
(2.14453e-16 2.3467e-16 0)
(1.36066e-16 1.99989e-16 0)
(7.16313e-17 1.57608e-16 0)
(2.73508e-17 1.05364e-16 0)
(4.86966e-19 4.27957e-17 0)
(2.59018e-19 -5.46695e-17 0)
(2.34569e-17 -1.38807e-16 0)
(6.25359e-17 -2.09336e-16 0)
(1.20142e-16 -2.67376e-16 0)
(1.91117e-16 -3.14716e-16 0)
(2.72946e-16 -3.53066e-16 0)
(3.63737e-16 -3.83561e-16 0)
(4.61471e-16 -4.06978e-16 0)
(5.64375e-16 -4.23948e-16 0)
(6.70822e-16 -4.35024e-16 0)
(7.79383e-16 -4.40676e-16 0)
(8.88745e-16 -4.41274e-16 0)
(9.97657e-16 -4.37199e-16 0)
(1.10499e-15 -4.28801e-16 0)
(1.20972e-15 -4.1639e-16 0)
(1.31089e-15 -4.0027e-16 0)
(1.4076e-15 -3.80747e-16 0)
(1.49907e-15 -3.581e-16 0)
(1.58455e-15 -3.32615e-16 0)
(1.66339e-15 -3.04565e-16 0)
(1.73498e-15 -2.74233e-16 0)
(1.79882e-15 -2.41896e-16 0)
(1.85444e-15 -2.07838e-16 0)
(1.90146e-15 -1.72363e-16 0)
(1.93945e-15 -1.35795e-16 0)
(1.96797e-15 -9.81721e-17 0)
(1.98694e-15 -5.94728e-17 0)
(1.99645e-15 -2.00283e-17 0)
(1.99649e-15 1.96282e-17 0)
(1.98707e-15 5.90814e-17 0)
(1.96818e-15 9.77936e-17 0)
(1.93974e-15 1.35432e-16 0)
(1.90184e-15 1.72014e-16 0)
(1.8549e-15 2.07509e-16 0)
(1.79935e-15 2.41589e-16 0)
(1.73558e-15 2.73956e-16 0)
(1.66404e-15 3.04315e-16 0)
(1.58526e-15 3.32402e-16 0)
(1.49982e-15 3.57924e-16 0)
(1.40839e-15 3.8061e-16 0)
(1.31171e-15 4.00178e-16 0)
(1.21056e-15 4.16342e-16 0)
(1.10584e-15 4.28797e-16 0)
(9.98501e-16 4.37249e-16 0)
(8.89581e-16 4.41365e-16 0)
(7.80206e-16 4.40809e-16 0)
(6.71606e-16 4.35214e-16 0)
(5.6511e-16 4.24169e-16 0)
(4.62147e-16 4.07215e-16 0)
(3.64352e-16 3.83841e-16 0)
(2.7349e-16 3.53373e-16 0)
(1.91498e-16 3.14982e-16 0)
(1.20475e-16 2.67579e-16 0)
(6.27516e-17 2.09683e-16 0)
(2.34941e-17 1.38873e-16 0)
(3.2425e-19 5.47956e-17 0)
(2.63551e-19 -6.50993e-17 0)
(2.02979e-17 -1.67994e-16 0)
(5.48676e-17 -2.55747e-16 0)
(1.06193e-16 -3.27933e-16 0)
(1.69725e-16 -3.8728e-16 0)
(2.43469e-16 -4.3536e-16 0)
(3.25642e-16 -4.73506e-16 0)
(4.14318e-16 -5.02767e-16 0)
(5.07845e-16 -5.23985e-16 0)
(6.04732e-16 -5.3783e-16 0)
(7.03627e-16 -5.44872e-16 0)
(8.03287e-16 -5.45646e-16 0)
(9.02564e-16 -5.40624e-16 0)
(1.00043e-15 -5.30222e-16 0)
(1.09593e-15 -5.14847e-16 0)
(1.18816e-15 -4.94896e-16 0)
(1.27634e-15 -4.70727e-16 0)
(1.35972e-15 -4.42701e-16 0)
(1.43763e-15 -4.11167e-16 0)
(1.50948e-15 -3.76477e-16 0)
(1.57472e-15 -3.38966e-16 0)
(1.63287e-15 -2.98982e-16 0)
(1.68351e-15 -2.56869e-16 0)
(1.72626e-15 -2.12973e-16 0)
(1.76076e-15 -1.6761e-16 0)
(1.78671e-15 -1.20965e-16 0)
(1.804e-15 -7.31833e-17 0)
(1.81266e-15 -2.46327e-17 0)
(1.81269e-15 2.41767e-17 0)
(1.80409e-15 7.27339e-17 0)
(1.78686e-15 1.20527e-16 0)
(1.76097e-15 1.67191e-16 0)
(1.72653e-15 2.12572e-16 0)
(1.68383e-15 2.56491e-16 0)
(1.63324e-15 2.98629e-16 0)
(1.57514e-15 3.38646e-16 0)
(1.50994e-15 3.76194e-16 0)
(1.43813e-15 4.10923e-16 0)
(1.36025e-15 4.425e-16 0)
(1.27689e-15 4.70574e-16 0)
(1.18873e-15 4.94793e-16 0)
(1.09651e-15 5.14797e-16 0)
(1.00103e-15 5.30225e-16 0)
(9.0316e-16 5.4068e-16 0)
(8.03867e-16 5.45764e-16 0)
(7.04199e-16 5.45041e-16 0)
(6.05276e-16 5.38042e-16 0)
(5.08344e-16 5.24248e-16 0)
(4.14798e-16 5.03079e-16 0)
(3.26071e-16 4.73836e-16 0)
(2.43786e-16 4.35694e-16 0)
(1.69986e-16 3.87648e-16 0)
(1.06432e-16 3.28327e-16 0)
(5.49351e-17 2.55975e-16 0)
(2.03602e-17 1.68297e-16 0)
(2.30544e-19 6.52072e-17 0)
(1.54896e-19 -7.41855e-17 0)
(1.76607e-17 -1.93802e-16 0)
(4.79151e-17 -2.96563e-16 0)
(9.31755e-17 -3.81909e-16 0)
(1.4945e-16 -4.5221e-16 0)
(2.15156e-16 -5.09245e-16 0)
(2.886e-16 -5.54552e-16 0)
(3.68058e-16 -5.89313e-16 0)
(4.52037e-16 -6.14501e-16 0)
(5.39165e-16 -6.30942e-16 0)
(6.28183e-16 -6.39338e-16 0)
(7.17946e-16 -6.40321e-16 0)
(8.07411e-16 -6.3445e-16 0)
(8.95622e-16 -6.22245e-16 0)
(9.817e-16 -6.04198e-16 0)
(1.06485e-15 -5.8076e-16 0)
(1.14434e-15 -5.52369e-16 0)
(1.2195e-15 -5.19457e-16 0)
(1.28972e-15 -4.82431e-16 0)
(1.35447e-15 -4.41698e-16 0)
(1.41325e-15 -3.97661e-16 0)
(1.46563e-15 -3.50716e-16 0)
(1.51122e-15 -3.01255e-16 0)
(1.54968e-15 -2.49664e-16 0)
(1.5807e-15 -1.96302e-16 0)
(1.60406e-15 -1.41473e-16 0)
(1.61966e-15 -8.54825e-17 0)
(1.62747e-15 -2.87426e-17 0)
(1.62748e-15 2.82531e-17 0)
(1.61971e-15 8.50012e-17 0)
(1.60415e-15 1.41005e-16 0)
(1.58082e-15 1.95851e-16 0)
(1.54983e-15 2.49234e-16 0)
(1.5114e-15 3.00851e-16 0)
(1.46585e-15 3.50342e-16 0)
(1.4135e-15 3.97321e-16 0)
(1.35474e-15 4.41399e-16 0)
(1.29002e-15 4.82174e-16 0)
(1.21981e-15 5.19246e-16 0)
(1.14466e-15 5.5221e-16 0)
(1.06519e-15 5.80653e-16 0)
(9.82047e-16 6.04148e-16 0)
(8.9597e-16 6.22256e-16 0)
(8.0776e-16 6.34517e-16 0)
(7.18292e-16 6.40448e-16 0)
(6.28515e-16 6.39526e-16 0)
(5.39485e-16 6.31183e-16 0)
(4.52346e-16 6.14796e-16 0)
(3.68321e-16 5.8965e-16 0)
(2.88816e-16 5.54918e-16 0)
(2.15387e-16 5.09642e-16 0)
(1.49623e-16 4.52606e-16 0)
(9.3201e-17 3.82297e-16 0)
(4.80045e-17 2.96919e-16 0)
(1.7735e-17 1.94105e-16 0)
(1.72599e-19 7.42869e-17 0)
(1.26408e-19 -8.20151e-17 0)
(1.52675e-17 -2.16277e-16 0)
(4.14912e-17 -3.32291e-16 0)
(8.08858e-17 -4.29305e-16 0)
(1.30143e-16 -5.09462e-16 0)
(1.87812e-16 -5.74677e-16 0)
(2.52486e-16 -6.26548e-16 0)
(3.22658e-16 -6.66364e-16 0)
(3.96956e-16 -6.95232e-16 0)
(4.74146e-16 -7.14098e-16 0)
(5.53098e-16 -7.23773e-16 0)
(6.32772e-16 -7.24988e-16 0)
(7.12219e-16 -7.18397e-16 0)
(7.90575e-16 -7.04604e-16 0)
(8.67056e-16 -6.84167e-16 0)
(9.40943e-16 -6.57612e-16 0)
(1.01157e-15 -6.25446e-16 0)
(1.07836e-15 -5.88151e-16 0)
(1.14075e-15 -5.462e-16 0)
(1.19827e-15 -5.00053e-16 0)
(1.25048e-15 -4.50164e-16 0)
(1.29699e-15 -3.96978e-16 0)
(1.33745e-15 -3.40935e-16 0)
(1.37158e-15 -2.82463e-16 0)
(1.39911e-15 -2.21978e-16 0)
(1.41986e-15 -1.59867e-16 0)
(1.43372e-15 -9.65322e-17 0)
(1.44066e-15 -3.24304e-17 0)
(1.44066e-15 3.19329e-17 0)
(1.43374e-15 9.60408e-17 0)
(1.41989e-15 1.59388e-16 0)
(1.39916e-15 2.21517e-16 0)
(1.37164e-15 2.82024e-16 0)
(1.33752e-15 3.40522e-16 0)
(1.29707e-15 3.96597e-16 0)
(1.25057e-15 4.49818e-16 0)
(1.19837e-15 4.99747e-16 0)
(1.14086e-15 5.4594e-16 0)
(1.07847e-15 5.8794e-16 0)
(1.0117e-15 6.25287e-16 0)
(9.41068e-16 6.5751e-16 0)
(8.67187e-16 6.84122e-16 0)
(7.90708e-16 7.04619e-16 0)
(7.1235e-16 7.18476e-16 0)
(6.32902e-16 7.25128e-16 0)
(5.53229e-16 7.23973e-16 0)
(4.7427e-16 7.14355e-16 0)
(3.97062e-16 6.95544e-16 0)
(3.22767e-16 6.66718e-16 0)
(2.52594e-16 6.26945e-16 0)
(1.87852e-16 5.75101e-16 0)
(1.30177e-16 5.09878e-16 0)
(8.09735e-17 4.2971e-16 0)
(4.14939e-17 3.32683e-16 0)
(1.52358e-17 2.16526e-16 0)
(1.48069e-19 8.21505e-17 0)
(1.18316e-19 -8.87628e-17 0)
(1.29996e-17 -2.3556e-16 0)
(3.5422e-17 -3.63158e-16 0)
(6.91887e-17 -4.70329e-16 0)
(1.1154e-16 -5.59237e-16 0)
(1.61285e-16 -6.31749e-16 0)
(2.17227e-16 -6.8949e-16 0)
(2.78048e-16 -7.33869e-16 0)
(3.4256e-16 -7.66083e-16 0)
(4.09682e-16 -7.87164e-16 0)
(4.78407e-16 -7.98034e-16 0)
(5.47808e-16 -7.99504e-16 0)
(6.17049e-16 -7.92312e-16 0)
(6.85368e-16 -7.77138e-16 0)
(7.52067e-16 -7.54608e-16 0)
(8.16508e-16 -7.25316e-16 0)
(8.78117e-16 -6.89822e-16 0)
(9.36368e-16 -6.48665e-16 0)
(9.90787e-16 -6.02369e-16 0)
(1.04095e-15 -5.51446e-16 0)
(1.08647e-15 -4.96393e-16 0)
(1.12701e-15 -4.377e-16 0)
(1.16228e-15 -3.75855e-16 0)
(1.19202e-15 -3.11328e-16 0)
(1.21601e-15 -2.44584e-16 0)
(1.2341e-15 -1.7608e-16 0)
(1.2462e-15 -1.06279e-16 0)
(1.25225e-15 -3.56784e-17 0)
(1.25225e-15 3.51927e-17 0)
(1.24619e-15 1.05798e-16 0)
(1.23408e-15 1.75611e-16 0)
(1.21599e-15 2.44132e-16 0)
(1.19199e-15 3.10897e-16 0)
(1.16224e-15 3.75451e-16 0)
(1.12697e-15 4.37327e-16 0)
(1.08642e-15 4.96055e-16 0)
(1.0409e-15 5.51149e-16 0)
(9.90736e-16 6.02117e-16 0)
(9.36314e-16 6.48461e-16 0)
(8.78061e-16 6.8967e-16 0)
(8.16452e-16 7.2522e-16 0)
(7.5201e-16 7.54571e-16 0)
(6.85313e-16 7.7716e-16 0)
(6.16997e-16 7.92395e-16 0)
(5.47757e-16 7.99648e-16 0)
(4.78357e-16 7.98239e-16 0)
(4.0964e-16 7.87425e-16 0)
(3.42529e-16 7.66396e-16 0)
(2.78009e-16 7.34233e-16 0)
(2.17186e-16 6.89883e-16 0)
(1.6128e-16 6.32162e-16 0)
(1.11528e-16 5.59678e-16 0)
(6.91314e-17 4.7074e-16 0)
(3.54236e-17 3.63509e-16 0)
(1.30258e-17 2.3584e-16 0)
(1.13322e-19 8.88852e-17 0)
(8.80465e-20 -9.44643e-17 0)
(1.08516e-17 -2.51889e-16 0)
(2.9613e-17 -3.89313e-16 0)
(5.79285e-17 -5.05214e-16 0)
(9.35273e-17 -6.01663e-16 0)
(1.35447e-16 -6.80499e-16 0)
(1.82689e-16 -7.43389e-16 0)
(2.34143e-16 -7.91784e-16 0)
(2.88811e-16 -8.26952e-16 0)
(3.45755e-16 -8.50012e-16 0)
(4.04113e-16 -8.61968e-16 0)
(4.63095e-16 -8.63698e-16 0)
(5.2197e-16 -8.56015e-16 0)
(5.80077e-16 -8.39671e-16 0)
(6.36823e-16 -8.15353e-16 0)
(6.91657e-16 -7.83704e-16 0)
(7.44084e-16 -7.4534e-16 0)
(7.93654e-16 -7.00852e-16 0)
(8.39959e-16 -6.50807e-16 0)
(8.82638e-16 -5.95757e-16 0)
(9.21366e-16 -5.36246e-16 0)
(9.55851e-16 -4.72802e-16 0)
(9.85845e-16 -4.05949e-16 0)
(1.01113e-15 -3.36201e-16 0)
(1.03154e-15 -2.64068e-16 0)
(1.04693e-15 -1.90057e-16 0)
(1.05723e-15 -1.14681e-16 0)
(1.06238e-15 -3.84737e-17 0)
(1.06237e-15 3.80139e-17 0)
(1.0572e-15 1.14228e-16 0)
(1.04688e-15 1.89615e-16 0)
(1.03146e-15 2.63642e-16 0)
(1.01103e-15 3.35796e-16 0)
(9.85722e-16 4.05569e-16 0)
(9.55709e-16 4.72452e-16 0)
(9.21207e-16 5.35931e-16 0)
(8.82464e-16 5.95482e-16 0)
(8.39772e-16 6.50573e-16 0)
(7.93455e-16 7.00664e-16 0)
(7.43878e-16 7.45203e-16 0)
(6.91446e-16 7.83619e-16 0)
(6.36609e-16 8.15323e-16 0)
(5.79863e-16 8.39699e-16 0)
(5.21759e-16 8.56099e-16 0)
(4.62893e-16 8.63839e-16 0)
(4.03923e-16 8.62168e-16 0)
(3.45575e-16 8.50267e-16 0)
(2.88644e-16 8.27254e-16 0)
(2.34003e-16 7.92129e-16 0)
(1.82572e-16 7.43772e-16 0)
(1.35332e-16 6.80903e-16 0)
(9.34394e-17 6.0206e-16 0)
(5.79051e-17 5.05604e-16 0)
(2.9582e-17 3.89664e-16 0)
(1.08278e-17 2.52134e-16 0)
(9.61896e-20 9.45706e-17 0)
(7.05096e-20 -9.91515e-17 0)
(8.7888e-18 -2.65354e-16 0)
(2.40048e-17 -4.10911e-16 0)
(4.70117e-17 -5.34077e-16 0)
(7.59878e-17 -6.36841e-16 0)
(1.10168e-16 -7.21005e-16 0)
(1.48755e-16 -7.88252e-16 0)
(1.90851e-16 -8.40063e-16 0)
(2.3563e-16 -8.77757e-16 0)
(2.8232e-16 -9.02524e-16 0)
(3.30214e-16 -9.1543e-16 0)
(3.78648e-16 -9.17404e-16 0)
(4.27013e-16 -9.09334e-16 0)
(4.74766e-16 -8.92035e-16 0)
(5.21414e-16 -8.66227e-16 0)
(5.66495e-16 -8.3261e-16 0)
(6.09599e-16 -7.91846e-16 0)
(6.50353e-16 -7.44565e-16 0)
(6.88425e-16 -6.91377e-16 0)
(7.23511e-16 -6.32869e-16 0)
(7.55344e-16 -5.69619e-16 0)
(7.83689e-16 -5.02192e-16 0)
(8.08339e-16 -4.31144e-16 0)
(8.29121e-16 -3.57026e-16 0)
(8.45892e-16 -2.80385e-16 0)
(8.58545e-16 -2.01765e-16 0)
(8.67009e-16 -1.21718e-16 0)
(8.71241e-16 -4.08085e-17 0)
(8.71222e-16 4.0392e-17 0)
(8.66953e-16 1.21307e-16 0)
(8.58451e-16 2.01362e-16 0)
(8.45761e-16 2.79997e-16 0)
(8.28956e-16 3.56658e-16 0)
(8.08142e-16 4.30799e-16 0)
(7.83461e-16 5.01875e-16 0)
(7.55089e-16 5.69334e-16 0)
(7.23231e-16 6.3262e-16 0)
(6.88123e-16 6.91167e-16 0)
(6.50035e-16 7.44399e-16 0)
(6.09267e-16 7.91725e-16 0)
(5.66154e-16 8.32538e-16 0)
(5.21068e-16 8.66205e-16 0)
(4.74421e-16 8.92065e-16 0)
(4.26675e-16 9.09418e-16 0)
(3.78321e-16 9.17541e-16 0)
(3.29902e-16 9.15617e-16 0)
(2.82029e-16 9.0276e-16 0)
(2.3537e-16 8.78042e-16 0)
(1.90618e-16 8.40384e-16 0)
(1.48551e-16 7.88599e-16 0)
(1.10016e-16 7.21374e-16 0)
(7.58761e-17 6.37222e-16 0)
(4.69105e-17 5.3443e-16 0)
(2.39672e-17 4.1121e-16 0)
(8.78966e-18 2.65587e-16 0)
(7.25799e-20 9.92444e-17 0)
(5.25287e-20 -1.02867e-16 0)
(6.7882e-18 -2.76043e-16 0)
(1.85526e-17 -4.28074e-16 0)
(3.6356e-17 -5.57048e-16 0)
(5.881e-17 -6.6488e-16 0)
(8.5336e-17 -7.53342e-16 0)
(1.15317e-16 -8.24114e-16 0)
(1.48065e-16 -8.78703e-16 0)
(1.82936e-16 -9.18463e-16 0)
(2.19315e-16 -9.44625e-16 0)
(2.56672e-16 -9.5834e-16 0)
(2.94447e-16 -9.60537e-16 0)
(3.32193e-16 -9.52151e-16 0)
(3.69471e-16 -9.34099e-16 0)
(4.05903e-16 -9.07104e-16 0)
(4.41109e-16 -8.71909e-16 0)
(4.74771e-16 -8.29217e-16 0)
(5.06598e-16 -7.79692e-16 0)
(5.36329e-16 -7.23975e-16 0)
(5.63727e-16 -6.62687e-16 0)
(5.88583e-16 -5.96431e-16 0)
(6.10712e-16 -5.25801e-16 0)
(6.29955e-16 -4.51382e-16 0)
(6.46177e-16 -3.73754e-16 0)
(6.59268e-16 -2.93491e-16 0)
(6.69145e-16 -2.1117e-16 0)
(6.75751e-16 -1.2737e-16 0)
(6.79049e-16 -4.26776e-17 0)
(6.79024e-16 4.23146e-17 0)
(6.75675e-16 1.27011e-16 0)
(6.69022e-16 2.1082e-16 0)
(6.59098e-16 2.93154e-16 0)
(6.45962e-16 3.73434e-16 0)
(6.29697e-16 4.51083e-16 0)
(6.10414e-16 5.25526e-16 0)
(5.88248e-16 5.96185e-16 0)
(5.6336e-16 6.62472e-16 0)
(5.35935e-16 7.23796e-16 0)
(5.06181e-16 7.7955e-16 0)
(4.74336e-16 8.29115e-16 0)
(4.40663e-16 8.7185e-16 0)
(4.05451e-16 9.0709e-16 0)
(3.6902e-16 9.3413e-16 0)
(3.3175e-16 9.52228e-16 0)
(2.94017e-16 9.6066e-16 0)
(2.56266e-16 9.58509e-16 0)
(2.1894e-16 9.44837e-16 0)
(1.8259e-16 9.18711e-16 0)
(1.47761e-16 8.78985e-16 0)
(1.15068e-16 8.24427e-16 0)
(8.51288e-17 7.53664e-16 0)
(5.86451e-17 6.65195e-16 0)
(3.62649e-17 5.57359e-16 0)
(1.85031e-17 4.28351e-16 0)
(6.75987e-18 2.7623e-16 0)
(5.66133e-20 1.0295e-16 0)
(3.66704e-20 -1.05638e-16 0)
(4.83248e-18 -2.84017e-16 0)
(1.321e-17 -4.40891e-16 0)
(2.58956e-17 -5.7422e-16 0)
(4.19097e-17 -6.85858e-16 0)
(6.08409e-17 -7.77564e-16 0)
(8.22557e-17 -8.51008e-16 0)
(1.0567e-16 -9.0771e-16 0)
(1.30623e-16 -9.49048e-16 0)
(1.56644e-16 -9.76295e-16 0)
(1.83436e-16 -9.90627e-16 0)
(2.10432e-16 -9.92991e-16 0)
(2.37525e-16 -9.84397e-16 0)
(2.64215e-16 -9.65772e-16 0)
(2.90334e-16 -9.37881e-16 0)
(3.15567e-16 -9.01494e-16 0)
(3.39691e-16 -8.57348e-16 0)
(3.62501e-16 -8.06133e-16 0)
(3.83806e-16 -7.48513e-16 0)
(4.03439e-16 -6.85128e-16 0)
(4.21249e-16 -6.16609e-16 0)
(4.37103e-16 -5.43567e-16 0)
(4.50888e-16 -4.6661e-16 0)
(4.62507e-16 -3.86338e-16 0)
(4.71882e-16 -3.0335e-16 0)
(4.78952e-16 -2.18242e-16 0)
(4.83678e-16 -1.31616e-16 0)
(4.86032e-16 -4.40744e-17 0)
(4.86003e-16 4.37735e-17 0)
(4.83591e-16 1.31319e-16 0)
(4.78807e-16 2.17953e-16 0)
(4.71679e-16 3.03072e-16 0)
(4.62251e-16 3.86074e-16 0)
(4.50582e-16 4.66364e-16 0)
(4.3675e-16 5.43342e-16 0)
(4.20853e-16 6.16407e-16 0)
(4.03004e-16 6.84955e-16 0)
(3.83339e-16 7.48368e-16 0)
(3.62006e-16 8.0602e-16 0)
(3.39175e-16 8.57269e-16 0)
(3.15038e-16 9.0145e-16 0)
(2.89797e-16 9.37875e-16 0)
(2.6368e-16 9.65803e-16 0)
(2.36999e-16 9.84465e-16 0)
(2.09924e-16 9.93098e-16 0)
(1.82954e-16 9.90772e-16 0)
(1.56194e-16 9.76471e-16 0)
(1.30219e-16 9.49257e-16 0)
(1.05319e-16 9.07948e-16 0)
(8.19476e-17 8.5126e-16 0)
(6.05942e-17 7.77832e-16 0)
(4.17423e-17 6.86135e-16 0)
(2.57729e-17 5.74469e-16 0)
(1.31385e-17 4.41104e-16 0)
(4.81241e-18 2.84183e-16 0)
(3.67095e-20 1.05704e-16 0)
(2.1179e-20 -1.07482e-16 0)
(2.90674e-18 -2.89322e-16 0)
(7.94377e-18 -4.49424e-16 0)
(1.55693e-17 -5.85653e-16 0)
(2.51961e-17 -6.9984e-16 0)
(3.65767e-17 -7.93718e-16 0)
(4.94534e-17 -8.68955e-16 0)
(6.35404e-17 -9.2708e-16 0)
(7.85448e-17 -9.69489e-16 0)
(9.41865e-17 -9.9745e-16 0)
(1.1062e-16 -1.01205e-15 0)
(1.26351e-16 -1.01446e-15 0)
(1.43e-16 -1.00594e-15 0)
(1.59028e-16 -9.86946e-16 0)
(1.7474e-16 -9.58456e-16 0)
(1.89922e-16 -9.21272e-16 0)
(2.04432e-16 -8.76154e-16 0)
(2.18157e-16 -8.2381e-16 0)
(2.30977e-16 -7.64916e-16 0)
(2.42789e-16 -7.0013e-16 0)
(2.53502e-16 -6.30094e-16 0)
(2.63037e-16 -5.55438e-16 0)
(2.71325e-16 -4.76783e-16 0)
(2.78307e-16 -3.94744e-16 0)
(2.83939e-16 -3.09933e-16 0)
(2.88183e-16 -2.22961e-16 0)
(2.91015e-16 -1.34444e-16 0)
(2.92418e-16 -4.49953e-17 0)
(2.92384e-16 4.47641e-17 0)
(2.90916e-16 1.34215e-16 0)
(2.88021e-16 2.22738e-16 0)
(2.83714e-16 3.09719e-16 0)
(2.78023e-16 3.94542e-16 0)
(2.70983e-16 4.76595e-16 0)
(2.62643e-16 5.55267e-16 0)
(2.5306e-16 6.29941e-16 0)
(2.42304e-16 6.99999e-16 0)
(2.30455e-16 7.64808e-16 0)
(2.17605e-16 8.23727e-16 0)
(2.03857e-16 8.76098e-16 0)
(1.89331e-16 9.21244e-16 0)
(1.74142e-16 9.58455e-16 0)
(1.58431e-16 9.86975e-16 0)
(1.42413e-16 1.00599e-15 0)
(1.2578e-16 1.01454e-15 0)
(1.10083e-16 1.01216e-15 0)
(9.3689e-17 9.97589e-16 0)
(7.80931e-17 9.6965e-16 0)
(6.31378e-17 9.2726e-16 0)
(4.91236e-17 8.69153e-16 0)
(3.63192e-17 7.93924e-16 0)
(2.498e-17 7.00038e-16 0)
(1.54297e-17 5.8585e-16 0)
(7.88321e-18 4.49601e-16 0)
(2.87482e-18 2.89442e-16 0)
(2.29632e-20 1.07536e-16 0)
(9.18038e-21 -1.08409e-16 0)
(9.98293e-19 -2.91991e-16 0)
(2.72219e-18 -4.53713e-16 0)
(5.32026e-18 -5.914e-16 0)
(8.5912e-18 -7.06865e-16 0)
(1.24492e-17 -8.01829e-16 0)
(1.68034e-17 -8.77958e-16 0)
(2.15622e-17 -9.36783e-16 0)
(2.66091e-17 -9.79731e-16 0)
(3.17488e-17 -1.00808e-15 0)
(3.73204e-17 -1.02301e-15 0)
(4.27327e-17 -1.02572e-15 0)
(4.87506e-17 -1.01682e-15 0)
(5.38474e-17 -9.97538e-16 0)
(5.90902e-17 -9.6873e-16 0)
(6.41847e-17 -9.31174e-16 0)
(6.90477e-17 -8.85581e-16 0)
(7.36494e-17 -8.32672e-16 0)
(7.79478e-17 -7.73139e-16 0)
(8.19057e-17 -7.07648e-16 0)
(8.54919e-17 -6.3685e-16 0)
(8.86799e-17 -5.61384e-16 0)
(9.14473e-17 -4.81875e-16 0)
(9.37746e-17 -3.98947e-16 0)
(9.56465e-17 -3.1322e-16 0)
(9.70509e-17 -2.25312e-16 0)
(9.79793e-17 -1.35844e-16 0)
(9.84274e-17 -4.5439e-17 0)
(9.83924e-17 4.52805e-17 0)
(9.78745e-17 1.35689e-16 0)
(9.68772e-17 2.25161e-16 0)
(9.54062e-17 3.13075e-16 0)
(9.34703e-17 3.9881e-16 0)
(9.1083e-17 4.81748e-16 0)
(8.82593e-17 5.61269e-16 0)
(8.50197e-17 6.36751e-16 0)
(8.1388e-17 7.07563e-16 0)
(7.73906e-17 7.7307e-16 0)
(7.306e-17 8.32621e-16 0)
(6.84336e-17 8.85548e-16 0)
(6.35538e-17 9.31161e-16 0)
(5.84519e-17 9.68736e-16 0)
(5.32109e-17 9.97563e-16 0)
(4.81264e-17 1.01687e-15 0)
(4.21278e-17 1.02578e-15 0)
(3.67463e-17 1.02308e-15 0)
(3.12141e-17 1.00818e-15 0)
(2.61266e-17 9.7984e-16 0)
(2.11454e-17 9.36905e-16 0)
(1.64414e-17 8.78087e-16 0)
(1.21464e-17 8.01964e-16 0)
(8.38812e-18 7.07006e-16 0)
(5.18657e-18 5.9153e-16 0)
(2.6248e-18 4.53822e-16 0)
(9.59427e-19 2.92085e-16 0)
(6.59921e-21 1.08446e-16 0)
(-6.92932e-21 -1.08428e-16 0)
(-9.01095e-19 -2.92036e-16 0)
(-2.48551e-18 -4.53778e-16 0)
(-4.90607e-18 -5.9148e-16 0)
(-7.97852e-18 -7.06951e-16 0)
(-1.16297e-17 -8.0192e-16 0)
(-1.57758e-17 -8.7805e-16 0)
(-2.03247e-17 -9.36874e-16 0)
(-2.51709e-17 -9.79819e-16 0)
(-3.01225e-17 -1.00817e-15 0)
(-3.55057e-17 -1.02308e-15 0)
(-4.07525e-17 -1.02579e-15 0)
(-4.66096e-17 -1.01689e-15 0)
(-5.1563e-17 -9.97598e-16 0)
(-5.66783e-17 -9.68783e-16 0)
(-6.16606e-17 -9.31219e-16 0)
(-6.64268e-17 -8.85619e-16 0)
(-7.09472e-17 -8.32702e-16 0)
(-7.51797e-17 -7.73162e-16 0)
(-7.90867e-17 -7.07664e-16 0)
(-8.26376e-17 -6.3686e-16 0)
(-8.58047e-17 -5.61385e-16 0)
(-8.85653e-17 -4.81869e-16 0)
(-9.09005e-17 -3.98935e-16 0)
(-9.27939e-17 -3.13202e-16 0)
(-9.4233e-17 -2.25288e-16 0)
(-9.52094e-17 -1.35815e-16 0)
(-9.57174e-17 -4.54032e-17 0)
(-9.57532e-17 4.53208e-17 0)
(-9.53172e-17 1.35733e-16 0)
(-9.44118e-17 2.25209e-16 0)
(-9.30412e-17 3.13127e-16 0)
(-9.12136e-17 3.98866e-16 0)
(-8.8941e-17 4.81807e-16 0)
(-8.62377e-17 5.61329e-16 0)
(-8.31234e-17 6.36813e-16 0)
(-7.96204e-17 7.07626e-16 0)
(-7.57537e-17 7.73133e-16 0)
(-7.15548e-17 8.32683e-16 0)
(-6.70599e-17 8.8561e-16 0)
(-6.23108e-17 9.3122e-16 0)
(-5.73369e-17 9.68794e-16 0)
(-5.22197e-17 9.97618e-16 0)
(-4.72559e-17 1.01692e-15 0)
(-4.1374e-17 1.02583e-15 0)
(-3.60968e-17 1.02313e-15 0)
(-3.06677e-17 1.00821e-15 0)
(-2.56693e-17 9.79873e-16 0)
(-2.07729e-17 9.36933e-16 0)
(-1.6145e-17 8.78116e-16 0)
(-1.19121e-17 8.01985e-16 0)
(-8.22057e-18 7.07013e-16 0)
(-5.07871e-18 5.91547e-16 0)
(-2.55537e-18 4.53844e-16 0)
(-9.36815e-19 2.92083e-16 0)
(-8.97167e-21 1.0845e-16 0)
(-2.09599e-20 -1.07538e-16 0)
(-2.81027e-18 -2.89457e-16 0)
(-7.71355e-18 -4.49618e-16 0)
(-1.51646e-17 -5.85887e-16 0)
(-2.45979e-17 -7.00099e-16 0)
(-3.578e-17 -7.93988e-16 0)
(-4.84548e-17 -8.69227e-16 0)
(-6.23388e-17 -9.27348e-16 0)
(-7.71482e-17 -9.69748e-16 0)
(-9.26033e-17 -9.97697e-16 0)
(-1.0886e-16 -1.01228e-15 0)
(-1.2442e-16 -1.01467e-15 0)
(-1.40924e-16 -1.00613e-15 0)
(-1.56816e-16 -9.87121e-16 0)
(-1.72406e-16 -9.58609e-16 0)
(-1.8748e-16 -9.21404e-16 0)
(-2.01897e-16 -8.76264e-16 0)
(-2.15543e-16 -8.23898e-16 0)
(-2.283e-16 -7.64982e-16 0)
(-2.40063e-16 -7.00176e-16 0)
(-2.50741e-16 -6.30119e-16 0)
(-2.60255e-16 -5.55443e-16 0)
(-2.68537e-16 -4.76767e-16 0)
(-2.75527e-16 -3.94709e-16 0)
(-2.8118e-16 -3.09879e-16 0)
(-2.85458e-16 -2.22889e-16 0)
(-2.88335e-16 -1.34355e-16 0)
(-2.89796e-16 -4.48912e-17 0)
(-2.89832e-16 4.48836e-17 0)
(-2.88443e-16 1.34348e-16 0)
(-2.85635e-16 2.22884e-16 0)
(-2.81426e-16 3.09875e-16 0)
(-2.75839e-16 3.94707e-16 0)
(-2.68911e-16 4.76767e-16 0)
(-2.60688e-16 5.55446e-16 0)
(-2.51226e-16 6.30124e-16 0)
(-2.40594e-16 7.00184e-16 0)
(-2.28872e-16 7.64993e-16 0)
(-2.1615e-16 8.23911e-16 0)
(-2.02529e-16 8.76279e-16 0)
(-1.88129e-16 9.21419e-16 0)
(-1.73064e-16 9.58624e-16 0)
(-1.57473e-16 9.87135e-16 0)
(-1.41571e-16 1.00614e-15 0)
(-1.25043e-16 1.01468e-15 0)
(-1.09454e-16 1.01229e-15 0)
(-9.31596e-17 9.97701e-16 0)
(-7.76511e-17 9.69751e-16 0)
(-6.2773e-17 9.27344e-16 0)
(-4.88369e-17 8.6922e-16 0)
(-3.61078e-17 7.93985e-16 0)
(-2.48159e-17 7.00099e-16 0)
(-1.53042e-17 5.85882e-16 0)
(-7.82837e-18 4.49622e-16 0)
(-2.86506e-18 2.8947e-16 0)
(-2.37203e-20 1.07544e-16 0)
(-3.46038e-20 -1.05729e-16 0)
(-4.73995e-18 -2.84235e-16 0)
(-1.29875e-17 -4.41208e-16 0)
(-2.55117e-17 -5.74599e-16 0)
(-4.13444e-17 -6.86279e-16 0)
(-6.00877e-17 -7.78004e-16 0)
(-8.13162e-17 -8.51452e-16 0)
(-1.04542e-16 -9.08147e-16 0)
(-1.29314e-16 -9.49468e-16 0)
(-1.55162e-16 -9.76696e-16 0)
(-1.81791e-16 -9.91005e-16 0)
(-2.08636e-16 -9.93338e-16 0)
(-2.35589e-16 -9.84711e-16 0)
(-2.62151e-16 -9.66053e-16 0)
(-2.88157e-16 -9.38128e-16 0)
(-3.13291e-16 -9.01706e-16 0)
(-3.37327e-16 -8.57525e-16 0)
(-3.60064e-16 -8.06276e-16 0)
(-3.8131e-16 -7.4862e-16 0)
(-4.00897e-16 -6.85202e-16 0)
(-4.18675e-16 -6.16647e-16 0)
(-4.3451e-16 -5.43573e-16 0)
(-4.48288e-16 -4.66583e-16 0)
(-4.59914e-16 -3.86281e-16 0)
(-4.69308e-16 -3.03261e-16 0)
(-4.76411e-16 -2.18126e-16 0)
(-4.8118e-16 -1.3147e-16 0)
(-4.83587e-16 -4.39042e-17 0)
(-4.83622e-16 4.39696e-17 0)
(-4.81283e-16 1.31535e-16 0)
(-4.76582e-16 2.18191e-16 0)
(-4.69546e-16 3.03324e-16 0)
(-4.60215e-16 3.86344e-16 0)
(-4.48649e-16 4.66643e-16 0)
(-4.34926e-16 5.43633e-16 0)
(-4.19142e-16 6.16703e-16 0)
(-4.01411e-16 6.85256e-16 0)
(-3.81864e-16 7.48668e-16 0)
(-3.6065e-16 8.0632e-16 0)
(-3.37938e-16 8.57561e-16 0)
(-3.13919e-16 9.01736e-16 0)
(-2.88794e-16 9.38147e-16 0)
(-2.62788e-16 9.66063e-16 0)
(-2.36217e-16 9.84708e-16 0)
(-2.09246e-16 9.93323e-16 0)
(-1.82371e-16 9.90978e-16 0)
(-1.55698e-16 9.76657e-16 0)
(-1.29809e-16 9.49413e-16 0)
(-1.04993e-16 9.08086e-16 0)
(-8.16838e-17 8.51385e-16 0)
(-6.03689e-17 7.77925e-16 0)
(-4.16006e-17 6.86201e-16 0)
(-2.56998e-17 5.74538e-16 0)
(-1.30621e-17 4.41162e-16 0)
(-4.78245e-18 2.84206e-16 0)
(-3.95404e-20 1.05721e-16 0)
(-5.20136e-20 -1.02991e-16 0)
(-6.70157e-18 -2.76342e-16 0)
(-1.83474e-17 -4.28503e-16 0)
(-3.60013e-17 -5.57564e-16 0)
(-5.82946e-17 -6.65445e-16 0)
(-8.46535e-17 -7.53933e-16 0)
(-1.14469e-16 -8.24712e-16 0)
(-1.47049e-16 -8.79292e-16 0)
(-1.81762e-16 -9.19031e-16 0)
(-2.17991e-16 -9.45165e-16 0)
(-2.55202e-16 -9.58848e-16 0)
(-2.92843e-16 -9.61003e-16 0)
(-3.30468e-16 -9.52575e-16 0)
(-3.67632e-16 -9.34476e-16 0)
(-4.03963e-16 -9.07439e-16 0)
(-4.3908e-16 -8.72194e-16 0)
(-4.72665e-16 -8.29457e-16 0)
(-5.04427e-16 -7.79883e-16 0)
(-5.34105e-16 -7.24122e-16 0)
(-5.61461e-16 -6.62784e-16 0)
(-5.86288e-16 -5.96485e-16 0)
(-6.08401e-16 -5.25807e-16 0)
(-6.27638e-16 -4.51348e-16 0)
(-6.43866e-16 -3.73673e-16 0)
(-6.56975e-16 -2.93373e-16 0)
(-6.66879e-16 -2.11008e-16 0)
(-6.73522e-16 -1.27175e-16 0)
(-6.76868e-16 -4.24435e-17 0)
(-6.76901e-16 4.25764e-17 0)
(-6.73619e-16 1.27307e-16 0)
(-6.67039e-16 2.11138e-16 0)
(-6.57195e-16 2.935e-16 0)
(-6.44146e-16 3.73796e-16 0)
(-6.27973e-16 4.51466e-16 0)
(-6.08788e-16 5.25918e-16 0)
(-5.86724e-16 5.96589e-16 0)
(-5.61939e-16 6.62878e-16 0)
(-5.34619e-16 7.24206e-16 0)
(-5.04973e-16 7.79954e-16 0)
(-4.73234e-16 8.29515e-16 0)
(-4.39667e-16 8.72235e-16 0)
(-4.04559e-16 9.07463e-16 0)
(-3.68229e-16 9.34479e-16 0)
(-3.31058e-16 9.52558e-16 0)
(-2.93414e-16 9.60965e-16 0)
(-2.55748e-16 9.58788e-16 0)
(-2.18511e-16 9.4508e-16 0)
(-1.82231e-16 9.18932e-16 0)
(-1.47451e-16 8.79173e-16 0)
(-1.1484e-16 8.2457e-16 0)
(-8.49807e-17 7.53796e-16 0)
(-5.8502e-17 6.65313e-16 0)
(-3.61379e-17 5.57431e-16 0)
(-1.84771e-17 4.28396e-16 0)
(-6.76554e-18 2.76281e-16 0)
(-5.84583e-20 1.02967e-16 0)
(-6.77754e-20 -9.9305e-17 0)
(-8.71031e-18 -2.65725e-16 0)
(-2.382e-17 -4.11436e-16 0)
(-4.66995e-17 -5.34707e-16 0)
(-7.55377e-17 -6.37531e-16 0)
(-1.09582e-16 -7.21724e-16 0)
(-1.48034e-16 -7.88975e-16 0)
(-1.89991e-16 -8.40776e-16 0)
(-2.34638e-16 -8.78447e-16 0)
(-2.81204e-16 -9.03177e-16 0)
(-3.2898e-16 -9.16041e-16 0)
(-3.77303e-16 -9.17969e-16 0)
(-4.25566e-16 -9.09846e-16 0)
(-4.73226e-16 -8.92493e-16 0)