/*--------------------------------*- C++ -*----------------------------------*\
| =========                 |                                                 |
| \\      /  F ield         | OpenFOAM: The Open Source CFD Toolbox           |
|  \\    /   O peration     | Version:  5.0                                   |
|   \\  /    A nd           | Web:      www.OpenFOAM.org                      |
|    \\/     M anipulation  |                                                 |
\*---------------------------------------------------------------------------*/
FoamFile
{
    version     2.0;
    format      ascii;
    class       volVectorField;
    location    "1.4";
    object      U;
}
// * * * * * * * * * * * * * * * * * * * * * * * * * * * * * * * * * * * * * //

dimensions      [0 1 -1 0 0 0 0];

internalField   nonuniform List<vector> 
50
(
(1.00857 6.0036e-07 1.03949e-27)
(1.00848 -1.40737e-06 -3.25961e-23)
(1.00876 8.6857e-07 -3.26301e-23)
(1.00814 -2.07753e-05 -3.25659e-23)
(1.01019 -6.76212e-05 -4.75428e-25)
(1.00738 -0.000999395 6.64651e-23)
(1.06017 0.00117024 8.36009e-23)
(1.06249 -0.000127797 -4.062e-23)
(1.06397 2.07147e-05 -4.62492e-25)
(1.06562 -0.00506588 2.01642e-23)
(0.927881 2.01908e-06 -7.17374e-37)
(0.927797 -4.58718e-06 2.82247e-23)
(0.928058 4.30341e-06 3.8568e-27)
(0.927463 -5.78546e-05 -2.84377e-23)
(0.928834 -0.000140157 -2.82114e-23)
(0.926307 -0.00420676 1.64416e-23)
(0.908366 -0.00536527 5.31308e-23)
(0.906434 -0.000752771 7.21043e-23)
(0.906758 -0.000125649 -4.70093e-25)
(0.906391 0.000741961 -9.56703e-23)
(0.766511 3.20064e-06 -2.76042e-23)
(0.766439 -7.01461e-06 -7.3223e-26)
(0.766658 9.14622e-06 2.82325e-23)
(0.766139 -6.77873e-05 -5.63685e-23)
(0.766956 -6.5919e-05 -5.632e-23)
(0.764951 -0.00252138 2.6518e-23)
(0.751834 -0.00292382 3.07966e-23)
(0.749102 -0.000459427 2.97412e-23)
(0.749118 -0.000106592 1.60146e-25)
(0.748365 4.70285e-05 -3.19464e-23)
(0.524456 2.92895e-06 5.52957e-23)
(0.524403 -6.22079e-06 2.81421e-23)
(0.524559 9.64892e-06 -5.64634e-23)
(0.524182 -4.60126e-05 -2.79434e-23)
(0.524659 8.18118e-06 5.72581e-23)
(0.523363 -0.000774413 6.58593e-23)
(0.514997 -0.000899906 3.89888e-23)
(0.512614 -0.000159702 1.81038e-24)
(0.512549 -5.36492e-05 -2.75845e-23)
(0.511879 -0.000159732 -2.7991e-24)
(0.201714 1.08971e-06 3.97192e-23)
(0.201692 -2.28603e-06 2.01062e-23)
(0.201758 3.75913e-06 -6.03577e-23)
(0.2016 -1.46924e-05 -2.0091e-23)
(0.20179 1.01577e-05 4.02451e-23)
(0.201339 -0.000142921 3.81378e-23)
(0.198215 -0.000177968 1.98307e-23)
(0.197143 -3.2978e-05 -4.14043e-25)
(0.197129 -1.3782e-05 0)
(0.196814 -5.55199e-05 0)
)
;

boundaryField
{
    top
    {
        type            fixedValue;
        value           uniform (0 0 0);
    }
    bottom
    {
        type            symmetryPlane;
    }
    inlet
    {
        type            pressureInletVelocity;
        value           nonuniform List<vector> 5((1.00856 0 0) (0.927873 0 0) (0.766503 0 0) (0.524448 0 0) (0.201709 0 0));
    }
    outlet
    {
        type            inletOutlet;
        inletValue      uniform (1 0 0);
        value           nonuniform List<vector> 5((1.06562 -0.00506588 2.01642e-23) (0.906391 0.000741961 -9.56703e-23) (0.748365 4.70285e-05 -3.19464e-23) (0.511879 -0.000159732 -2.7991e-24) (0.196814 -5.55199e-05 0));
    }
    frontAndBack
    {
        type            empty;
    }
}


// ************************************************************************* //
