/*--------------------------------*- C++ -*----------------------------------*\
| =========                 |                                                 |
| \\      /  F ield         | OpenFOAM: The Open Source CFD Toolbox           |
|  \\    /   O peration     | Version:  5.0                                   |
|   \\  /    A nd           | Web:      www.OpenFOAM.org                      |
|    \\/     M anipulation  |                                                 |
\*---------------------------------------------------------------------------*/
FoamFile
{
    version     2.0;
    format      ascii;
    class       volVectorField;
    location    "280";
    object      U;
}
// * * * * * * * * * * * * * * * * * * * * * * * * * * * * * * * * * * * * * //

dimensions      [0 1 -1 0 0 0 0];

internalField   nonuniform List<vector> 
7000
(
(0.00661122 -0.000667124 -0.0254865)
(0.0196818 -0.00118194 -0.00692085)
(0.0243223 -0.00124638 -0.00213857)
(0.0235952 -0.000985851 -0.00061145)
(0.0220924 -0.000652105 0.000234573)
(0.0207982 -0.000296723 0.000746985)
(0.0190821 0.000127597 0.00103925)
(0.0165391 0.000605601 0.00125131)
(0.0131679 0.000965395 0.00145766)
(0.00907972 0.00100077 0.00164355)
(0.00437118 0.000365603 0.00178978)
(-0.000263236 -0.0014614 0.00195649)
(-0.00123482 -0.00385912 0.00215522)
(-0.000595733 -0.00438074 0.00188178)
(0.00662862 -0.0015307 -0.027802)
(0.0204848 -0.00240441 -0.00947562)
(0.0261992 -0.00245721 -0.00425479)
(0.0268549 -0.00226782 -0.00240557)
(0.0267318 -0.00196048 -0.00129702)
(0.0267221 -0.00156123 -0.000491369)
(0.0263735 -0.00106718 0.000104215)
(0.0254916 -0.000469781 0.000596068)
(0.0241275 0.000184357 0.00105545)
(0.0221922 0.000788362 0.00147952)
(0.0194477 0.00101003 0.00186139)
(0.0158088 0.000322716 0.00219041)
(0.0107936 -0.00218314 0.0025831)
(0.00417686 -0.00505763 0.00264718)
(0.00664748 -0.001206 -0.0277033)
(0.0205751 -0.00193244 -0.00938354)
(0.0262322 -0.00223214 -0.00424286)
(0.0267944 -0.00238375 -0.00246802)
(0.0267481 -0.0023558 -0.00143692)
(0.0268806 -0.00217659 -0.000695145)
(0.0267227 -0.00187636 -0.00015136)
(0.0260735 -0.0014741 0.000305575)
(0.0249662 -0.000997615 0.000744728)
(0.0233687 -0.000548202 0.00120293)
(0.0210759 -0.000374046 0.00169783)
(0.0176746 -0.000785198 0.00220742)
(0.0127594 -0.00197027 0.00276128)
(0.00526826 -0.00272471 0.0028704)
(0.00659302 -0.00126293 -0.0276274)
(0.0204846 -0.0020916 -0.00926147)
(0.0260989 -0.00252964 -0.00411742)
(0.0266614 -0.0027883 -0.00236161)
(0.0266588 -0.00284837 -0.00135709)
(0.0268488 -0.00275557 -0.00066753)
(0.0267284 -0.00254632 -0.000180235)
(0.0260958 -0.00223677 0.000234111)
(0.0249625 -0.00183742 0.00065495)
(0.0232469 -0.00140311 0.0011343)
(0.0207208 -0.00103772 0.00170316)
(0.0170371 -0.000871817 0.00232279)
(0.0118916 -0.000921421 0.00295228)
(0.00448465 -0.000547903 0.0029971)
(0.00653323 -0.00129281 -0.0275453)
(0.0203563 -0.00213906 -0.00914934)
(0.0258979 -0.00261194 -0.00401481)
(0.0264421 -0.00290494 -0.00227547)
(0.0264539 -0.00300979 -0.00129741)
(0.0266879 -0.00297166 -0.000656375)
(0.026604 -0.00282702 -0.000217063)
(0.0260004 -0.00258036 0.000156846)
(0.0248767 -0.00222914 0.00055766)
(0.0231108 -0.00179949 0.00105376)
(0.0204359 -0.00134169 0.00168718)
(0.0165118 -0.000932472 0.00240094)
(0.0111303 -0.000464542 0.00307636)
(0.00392758 0.000514337 0.00307349)
(0.00647383 -0.00131639 -0.0274532)
(0.0202099 -0.00219809 -0.00903923)
(0.0256699 -0.00269053 -0.00391647)
(0.0261977 -0.00298045 -0.00219855)
(0.0262273 -0.00308371 -0.00124927)
(0.0264996 -0.00305205 -0.000648718)
(0.0264528 -0.00292229 -0.00024992)
(0.0258879 -0.00269621 8.9037e-05)
(0.0247938 -0.00237189 0.00046869)
(0.0230232 -0.0019611 0.000971268)
(0.0202811 -0.00148747 0.00164826)
(0.0162312 -0.000986237 0.00242873)
(0.010695 -0.000289673 0.00313676)
(0.0035723 0.000984966 0.0031167)
(0.00643213 -0.00132588 -0.0273948)
(0.020074 -0.00222465 -0.00897318)
(0.0254598 -0.00269233 -0.00386497)
(0.0259707 -0.00293155 -0.00216308)
(0.0260087 -0.00299386 -0.00123509)
(0.026282 -0.00294257 -0.000661166)
(0.0262629 -0.00280752 -0.000295665)
(0.0257334 -0.00259248 1.45769e-05)
(0.0246728 -0.00229657 0.0003766)
(0.0229166 -0.00192121 0.000882998)
(0.0201476 -0.0014781 0.00159079)
(0.0160274 -0.000979055 0.00242018)
(0.0103922 -0.000237924 0.00315574)
(0.0033184 0.00112386 0.00312875)
(0.00640207 -0.00126563 -0.0273893)
(0.0199587 -0.0021162 -0.0089688)
(0.0252783 -0.00252464 -0.00386549)
(0.0257654 -0.00270029 -0.00217471)
(0.0257959 -0.00271956 -0.00125907)
(0.0260585 -0.00265033 -0.000702005)
(0.0260497 -0.00251707 -0.00035783)
(0.0255468 -0.00231984 -6.45206e-05)
(0.0245174 -0.00205829 0.000289555)
(0.0227831 -0.00173298 0.000800307)
(0.0200044 -0.00135144 0.0015305)
(0.0158404 -0.000913703 0.00239613)
(0.0101373 -0.00024283 0.00315346)
(0.00311162 0.0010391 0.00311929)
(0.00636171 -0.00110122 -0.027411)
(0.0198439 -0.00182813 -0.00899117)
(0.0251109 -0.00215299 -0.00388776)
(0.025577 -0.00226604 -0.00220548)
(0.025594 -0.00225405 -0.00129896)
(0.0258455 -0.00217947 -0.00075095)
(0.0258314 -0.00205966 -0.000415684)
(0.0253543 -0.00189133 -0.000132845)
(0.0243565 -0.00167533 0.000215982)
(0.0226446 -0.00141652 0.000730341)
(0.0198642 -0.00112032 0.00147738)
(0.015671 -0.000783037 0.00237007)
(0.00991885 -0.000264766 0.00314395)
(0.00293974 0.000776528 0.00310214)
(0.00629829 -0.00084286 -0.0274267)
(0.0197165 -0.00138706 -0.00901048)
(0.0249577 -0.00161145 -0.0039057)
(0.0254185 -0.0016663 -0.00223148)
(0.0254291 -0.00163743 -0.00133199)
(0.0256768 -0.00157152 -0.000787165)
(0.0256657 -0.00147645 -0.000457667)
(0.0252127 -0.00135009 -0.000183195)
(0.0242416 -0.0011947 0.000162292)
(0.022549 -0.00101619 0.000680694)
(0.019771 -0.000820632 0.00144028)
(0.0155592 -0.000606775 0.00235111)
(0.00977475 -0.000292542 0.00313579)
(0.00282834 0.000378056 0.00308414)
(0.00623954 -0.000546537 -0.0274356)
(0.0196066 -0.000880774 -0.00902756)
(0.0248508 -0.000989875 -0.00391631)
(0.0253242 -0.000986112 -0.00224507)
(0.0253369 -0.000946711 -0.00134903)
(0.0255891 -0.000895921 -0.000802348)
(0.0255879 -0.000831502 -0.000476001)
(0.0251535 -0.000753271 -0.000207087)
(0.0242013 -0.000664517 0.000137424)
(0.0225225 -0.000571927 0.000658949)
(0.0197474 -0.000484164 0.0014255)
(0.015525 -0.000405333 0.00234456)
(0.00972343 -0.000318876 0.00313334)
(0.00278728 -9.23123e-05 0.00307767)
(0.00619898 -0.000279312 -0.0274454)
(0.0195388 -0.00041097 -0.00904833)
(0.0248122 -0.00039067 -0.00392625)
(0.0253077 -0.000321955 -0.00224955)
(0.0253272 -0.000266944 -0.00135073)
(0.0255895 -0.00022564 -0.000800085)
(0.0256025 -0.000187716 -0.000471502)
(0.0251795 -0.000154726 -0.000200903)
(0.0242357 -0.000130269 0.000144368)
(0.0225615 -0.000122112 0.00066739)
(0.0197853 -0.000142854 0.00143543)
(0.0155559 -0.000203483 0.00235351)
(0.00974588 -0.000351168 0.00313986)
(0.00279616 -0.000563975 0.00308668)
(0.00618298 -6.73614e-05 -0.0274655)
(0.0195329 -2.28597e-05 -0.00906496)
(0.0248511 0.00012521 -0.00393278)
(0.0253659 0.000262096 -0.00224683)
(0.0253929 0.000342228 -0.00133902)
(0.0256669 0.000385104 -0.00078335)
(0.0256934 0.000405381 -0.000448305)
(0.0252723 0.000401088 -0.000171231)
(0.0243255 0.000369025 0.000177136)
(0.0226442 0.000299708 0.000701968)
(0.0198582 0.000175156 0.00146877)
(0.0156178 -2.32284e-05 0.00237919)
(0.00980121 -0.000398998 0.00315676)
(0.00281734 -0.00100209 0.0031048)
(0.00621312 0.000104321 -0.0274923)
(0.0196187 0.00029191 -0.00908179)
(0.0249832 0.000542516 -0.00394507)
(0.0255078 0.000742134 -0.00224931)
(0.0255371 0.000853344 -0.00132936)
(0.0258167 0.000906009 -0.00076587)
(0.0258491 0.000917269 -0.000421266)
(0.0254183 0.000885706 -0.000133154)
(0.0244553 0.00080688 0.000223135)
(0.0227531 0.000668785 0.000753243)
(0.0199445 0.000447464 0.00151946)
(0.0156846 0.000118517 0.00241883)
(0.00985841 -0.000469252 0.00318218)
(0.00283258 -0.00141198 0.00312705)
(0.00628296 0.000258837 -0.0275373)
(0.0197844 0.000551981 -0.0091226)
(0.0251994 0.000872434 -0.00397702)
(0.0257278 0.00112328 -0.00227038)
(0.0257506 0.00126389 -0.00133796)
(0.0260265 0.00132813 -0.00076351)
(0.0260563 0.00133514 -0.000403983)
(0.0256037 0.00128397 -9.83895e-05)
(0.0246108 0.00116679 0.000272448)
(0.0228734 0.000966695 0.000813054)
(0.0200297 0.000655571 0.00158071)
(0.0157424 0.000207161 0.00246684)
(0.00990526 -0.000571728 0.00321208)
(0.00284858 -0.00180946 0.00315022)
(0.00637024 0.000398796 -0.0276076)
(0.0199888 0.000764526 -0.00919015)
(0.0254748 0.0011263 -0.00402601)
(0.0260154 0.00141599 -0.00230161)
(0.0260261 0.00158129 -0.00135688)
(0.0262912 0.00165377 -0.000769824)
(0.0263068 0.0016549 -0.000394492)
(0.0258224 0.00158512 -6.98614e-05)
(0.0247873 0.00143235 0.000320481)
(0.0230009 0.00117372 0.000876061)
(0.020113 0.000780152 0.00164632)
(0.0157959 0.000227784 0.00251636)
(0.00995305 -0.000716235 0.00324149)
(0.00287907 -0.00219955 0.00317227)
(0.00645845 0.000511666 -0.027681)
(0.0202031 0.000921647 -0.0092667)
(0.0257806 0.00129814 -0.00408685)
(0.0263513 0.0016114 -0.00234023)
(0.0263529 0.00179542 -0.00137455)
(0.0266084 0.00187232 -0.000770426)
(0.0265931 0.00186706 -0.000374217)
(0.0260669 0.00177659 -2.63242e-05)
(0.0249799 0.0015854 0.000383209)
(0.023137 0.00127035 0.000950665)
(0.0202047 0.000804732 0.00171738)
(0.0158657 0.000170215 0.00256372)
(0.0100328 -0.000903073 0.00326597)
(0.00295899 -0.00255998 0.00319091)
(0.00653963 0.00058023 -0.0277477)
(0.0204102 0.00100007 -0.00934042)
(0.0260992 0.00136724 -0.00414614)
(0.0267188 0.0016845 -0.00238411)
(0.0267218 0.00187351 -0.00139588)
(0.0269646 0.00194639 -0.000759789)
(0.0269137 0.00193051 -0.000327629)
(0.0263399 0.00181757 4.91494e-05)
(0.0251966 0.00158883 0.000472324)
(0.023298 0.00122677 0.00104093)
(0.0203313 0.000710058 0.00179107)
(0.0159893 2.70866e-05 0.00260302)
(0.0101905 -0.00111806 0.00327972)
(0.00311878 -0.00282752 0.00320347)
(0.00661148 0.000586963 -0.0278093)
(0.0206015 0.000973807 -0.00941324)
(0.0264201 0.00130643 -0.00420422)
(0.0271056 0.00160502 -0.00242581)
(0.0271219 0.0017778 -0.00142265)
(0.0273349 0.00183603 -0.000752954)
(0.0272464 0.00180151 -0.000285483)
(0.0266262 0.00166669 0.000114967)
(0.0254284 0.00141152 0.000549588)
(0.0234842 0.00102305 0.00111373)
(0.0205012 0.000490651 0.00184014)
(0.0161802 -0.000192162 0.00261603)
(0.0104357 -0.00132222 0.00327351)
(0.00333966 -0.00291711 0.00320691)
(0.00667473 0.000524846 -0.0278777)
(0.0207764 0.000832488 -0.00949475)
(0.0267333 0.00110188 -0.00426782)
(0.0274928 0.00135635 -0.00247312)
(0.0275223 0.00149336 -0.00146397)
(0.0277043 0.00152425 -0.000775328)
(0.0275788 0.0014683 -0.000288167)
(0.0269143 0.00131953 0.000128455)
(0.0256688 0.00106013 0.000575991)
(0.0236919 0.000680261 0.00113609)
(0.0207092 0.000181531 0.00183587)
(0.0164273 -0.000440528 0.00258535)
(0.0107393 -0.0014516 0.00324155)
(0.00359302 -0.00276501 0.00320019)
(0.00673284 0.000402535 -0.0279623)
(0.0209341 0.000593626 -0.00959605)
(0.0270213 0.000776455 -0.00435247)
(0.027848 0.000965407 -0.00254531)
(0.0278786 0.0010552 -0.00153403)
(0.0280277 0.00105486 -0.000830537)
(0.0278691 0.000982597 -0.000329131)
(0.0271666 0.000833865 9.50194e-05)
(0.0258831 0.000597515 0.00054643)
(0.023886 0.000268151 0.00109886)
(0.0209147 -0.000146428 0.00177869)
(0.0166723 -0.000648537 0.00251783)
(0.0110237 -0.00144947 0.00319264)
(0.00379301 -0.00236984 0.00318957)
(0.00678683 0.000245578 -0.028061)
(0.0210671 0.000309544 -0.00971783)
(0.0272605 0.000397136 -0.0044598)
(0.0281368 0.000508457 -0.00264154)
(0.0281499 0.000551438 -0.00162821)
(0.0282652 0.000529243 -0.000919378)
(0.028076 0.000455423 -0.000411753)
(0.0273414 0.00032697 1.52859e-05)
(0.0260291 0.000139009 0.000465344)
(0.0240186 -0.000106071 0.00101148)
(0.0210588 -0.000400033 0.00168481)
(0.0168424 -0.000744773 0.00243286)
(0.0112088 -0.00128824 0.00314186)
(0.00387902 -0.00180843 0.00317896)
(0.00683035 8.8884e-05 -0.0281548)
(0.0211629 5.14769e-05 -0.0098344)
(0.0274268 5.37575e-05 -0.00456275)
(0.0283292 8.60231e-05 -0.0027369)
(0.0283186 8.77669e-05 -0.00172432)
(0.0284053 5.77509e-05 -0.00101939)
(0.0281882 1.41279e-06 -0.000516231)
(0.0274252 -8.52752e-05 -9.03295e-05)
(0.0260904 -0.000203657 0.00035816)
(0.0240711 -0.000345683 0.000903602)
(0.0211167 -0.000507699 0.0015839)
(0.0169091 -0.000692976 0.00235529)
(0.0112725 -0.000989692 0.00310359)
(0.00387402 -0.0011982 0.00317271)
(0.00685641 -4.48485e-05 -0.0282024)
(0.0212168 -0.000140641 -0.0099006)
(0.0275063 -0.000196201 -0.00462696)
(0.0284149 -0.000229691 -0.00279969)
(0.0283856 -0.000259129 -0.00178725)
(0.0284593 -0.000285017 -0.00108964)
(0.0282272 -0.000310856 -0.000593689)
(0.0274476 -0.000342608 -0.000171306)
(0.0261009 -0.000380651 0.000276051)
(0.0240773 -0.00042105 0.000823847)
(0.021123 -0.000464669 0.00151522)
(0.0169119 -0.000516108 0.0023092)
(0.0112655 -0.000614022 0.00308577)
(0.00384318 -0.000622588 0.00317005)
(0.00686645 -0.000152629 -0.0282015)
(0.0212334 -0.000279192 -0.00990465)
(0.0275211 -0.000373204 -0.00463379)
(0.0284335 -0.000458027 -0.00280642)
(0.0284112 -0.000509938 -0.00179184)
(0.028495 -0.000526775 -0.00109695)
(0.0282671 -0.00051934 -0.000604773)
(0.0274879 -0.00049424 -0.000183461)
(0.0261406 -0.000453575 0.000263664)
(0.0241153 -0.000401457 0.000811503)
(0.0211557 -0.000342537 0.00150591)
(0.0169334 -0.000281953 0.00230593)
(0.0112731 -0.000218502 0.00308781)
(0.00384085 -9.44591e-05 0.00317137)
(0.00686103 -0.000246078 -0.0281684)
(0.0212125 -0.000404925 -0.0098565)
(0.0274781 -0.000547846 -0.00458535)
(0.0283931 -0.000687889 -0.00275649)
(0.028399 -0.000764421 -0.00173721)
(0.0285098 -0.00077751 -0.00103866)
(0.0283024 -0.000743388 -0.00054506)
(0.0275394 -0.000668304 -0.000124522)
(0.026203 -0.000555021 0.000320938)
(0.0241798 -0.000412985 0.000866523)
(0.0212132 -0.000250709 0.00155608)
(0.0169779 -7.46447e-05 0.00234505)
(0.011308 0.000155791 0.00311071)
(0.00386089 0.000430559 0.00318187)
(0.00683086 -0.000349393 -0.0280889)
(0.0211393 -0.000568667 -0.00974781)
(0.0273478 -0.000781439 -0.00448497)
(0.0282463 -0.000986354 -0.00266264)
(0.0282839 -0.0010957 -0.00164488)
(0.0284332 -0.00111523 -0.000946424)
(0.0282598 -0.0010654 -0.000452039)
(0.0275276 -0.000951281 -3.4595e-05)
(0.0262149 -0.000773593 0.0004085)
(0.0242009 -0.000541061 0.000954856)
(0.0212282 -0.000266787 0.00164185)
(0.0169783 4.03912e-05 0.00241573)
(0.0112983 0.000470145 0.00315369)
(0.00386518 0.000976294 0.00320152)
(0.00677826 -0.000476524 -0.0279651)
(0.0210079 -0.000788755 -0.00959228)
(0.0271193 -0.00107499 -0.00435219)
(0.0279763 -0.0013414 -0.00255103)
(0.0280406 -0.00148866 -0.00154361)
(0.0282379 -0.0015257 -0.000853199)
(0.0281098 -0.00147405 -0.000364126)
(0.0274217 -0.00133545 4.91632e-05)
(0.0261461 -0.00110634 0.000491956)
(0.0241511 -0.000791861 0.00104279)
(0.0211731 -0.000407949 0.00173482)
(0.0169025 3.45201e-05 0.00249995)
(0.0112005 0.000678729 0.00320835)
(0.00382894 0.00149359 0.00322463)
(0.00671125 -0.00060574 -0.0278428)
(0.0208329 -0.00101602 -0.00944813)
(0.0268151 -0.00136188 -0.00423758)
(0.0276086 -0.00167879 -0.00246257)
(0.0276899 -0.00186798 -0.00146523)
(0.0279409 -0.00193408 -0.000789525)
(0.0278698 -0.00189529 -0.000310737)
(0.027241 -0.00174964 0.000100233)
(0.0260189 -0.00148895 0.000542553)
(0.0240569 -0.00111492 0.0010999)
(0.0210786 -0.000641794 0.00180625)
(0.016779 -8.15347e-05 0.00257564)
(0.0110324 0.000752474 0.00326253)
(0.00372062 0.00189825 0.00324816)
(0.00662989 -0.000699236 -0.0277374)
(0.0206277 -0.00118068 -0.00933843)
(0.0264651 -0.00156897 -0.00415961)
(0.027188 -0.00192772 -0.00240753)
(0.02728 -0.00216 -0.00141852)
(0.0275924 -0.00225863 -0.000757191)
(0.0275911 -0.00224188 -0.000292233)
(0.0270362 -0.00210571 0.000110134)
(0.0258853 -0.00183888 0.000545349)
(0.0239732 -0.00143897 0.00110762)
(0.0210067 -0.000910096 0.00183513)
(0.0166771 -0.000265595 0.00262327)
(0.0108646 0.000705341 0.00330445)
(0.0035572 0.00212458 0.00326894)
(0.00653413 -0.000741702 -0.0276563)
(0.0204053 -0.00126141 -0.00926933)
(0.0260965 -0.00168225 -0.00411514)
(0.0267586 -0.0020759 -0.00237374)
(0.0268693 -0.00234064 -0.00139083)
(0.0272503 -0.00246297 -0.000747216)
(0.0273247 -0.00246869 -0.000302989)
(0.0268513 -0.00235269 7.91947e-05)
(0.025783 -0.0021014 0.000503828)
(0.0239383 -0.00170616 0.001068)
(0.0210024 -0.00115835 0.00181334)
(0.0166561 -0.000468718 0.00263106)
(0.0107717 0.000577627 0.00332574)
(0.00342653 0.00216696 0.00328548)
(0.00642904 -0.000740717 -0.0275938)
(0.0201795 -0.00128065 -0.00922321)
(0.0257374 -0.00173177 -0.00408299)
(0.026361 -0.00214491 -0.00234489)
(0.0265099 -0.00241823 -0.00136834)
(0.0269444 -0.0025491 -0.000744558)
(0.0270908 -0.00256619 -0.000334123)
(0.0266971 -0.00246853 2.14394e-05)
(0.0257132 -0.00224141 0.000430658)
(0.0239475 -0.00187041 0.00099038)
(0.0210628 -0.00133774 0.00174946)
(0.0167227 -0.000644383 0.00260207)
(0.0107762 0.00041857 0.00332617)
(0.00337294 0.00208359 0.0032963)
(0.00633251 -0.000718009 -0.0275432)
(0.0199757 -0.00127697 -0.00918132)
(0.0254256 -0.00175076 -0.00404384)
(0.0260401 -0.00215626 -0.00231171)
(0.0262342 -0.00240582 -0.00134943)
(0.0267051 -0.00251755 -0.0007465)
(0.0269052 -0.00252336 -0.000367433)
(0.026574 -0.00242933 -3.88707e-05)
(0.0256634 -0.00222415 0.000346691)
(0.0239746 -0.00189087 0.000892182)
(0.0211513 -0.00140522 0.00165821)
(0.0168345 -0.000752411 0.00254622)
(0.0108408 0.000275011 0.00331052)
(0.00337586 0.00195171 0.00330065)
(0.00627513 -0.000691266 -0.0275138)
(0.0198319 -0.00126831 -0.00914755)
(0.0252025 -0.00173535 -0.00401286)
(0.0258211 -0.00208805 -0.00229269)
(0.0260463 -0.00227149 -0.00135214)
(0.0265369 -0.00232846 -0.000769824)
(0.0267462 -0.00230113 -0.000412427)
(0.0264585 -0.00219808 -0.000114715)
(0.0256031 -0.00201329 0.000244209)
(0.0239762 -0.00173048 0.000774452)
(0.0212079 -0.00132194 0.00154803)
(0.016915 -0.000755531 0.00247355)
(0.0108775 0.000184782 0.00328587)
(0.00337462 0.00181527 0.00329626)
(0.0062815 -0.000642823 -0.027533)
(0.0197765 -0.00120177 -0.00915166)
(0.0250991 -0.00160456 -0.00402545)
(0.025717 -0.00184869 -0.0023279)
(0.0259511 -0.00193084 -0.00140759)
(0.0264375 -0.00191509 -0.000843461)
(0.0266352 -0.00184862 -0.000507267)
(0.0263644 -0.00173794 -0.000228554)
(0.025536 -0.00158028 0.000117987)
(0.0239414 -0.00136115 0.000646324)
(0.0212006 -0.00105465 0.0014359)
(0.0169056 -0.000618072 0.00240086)
(0.0108056 0.000174356 0.0032633)
(0.00329833 0.00165556 0.00328233)
(0.00633633 -0.000486546 -0.0276232)
(0.0197921 -0.000916609 -0.00923055)
(0.0251043 -0.0011963 -0.00410234)
(0.0257168 -0.00131433 -0.00241642)
(0.0259402 -0.00131013 -0.00150398)
(0.0264081 -0.00125132 -0.000945332)
(0.0265856 -0.00117429 -0.000609769)
(0.0262987 -0.00107714 -0.000329431)
(0.0254683 -0.000956384 1.96481e-05)
(0.0238709 -0.000804021 0.00055652)
(0.0211155 -0.000608693 0.00136256)
(0.0167705 -0.000327956 0.00235635)
(0.0105717 0.000251731 0.0032522)
(0.00311373 0.00139719 0.00325744)
(0.0063743 -0.000142154 -0.0277423)
(0.019813 -0.000285917 -0.00934303)
(0.0251538 -0.000414285 -0.00417715)
(0.0257724 -0.000451359 -0.00247311)
(0.0259814 -0.000431009 -0.00154808)
(0.0264245 -0.000400257 -0.000977216)
(0.0265771 -0.00036945 -0.000627414)
(0.0262593 -0.000320826 -0.000337181)
(0.0253946 -0.000247976 1.98968e-05)
(0.0237535 -0.000158256 0.000560583)
(0.0209293 -5.85957e-05 0.00136926)
(0.0164797 7.30388e-05 0.00237331)
(0.0101756 0.000381931 0.00327878)
(0.00283666 0.00092234 0.00324793)
(0.00637877 0.000288231 -0.0276882)
(0.0198395 0.000489443 -0.00926383)
(0.0252303 0.00053062 -0.00406158)
(0.025867 0.000546376 -0.00234039)
(0.0260573 0.000536755 -0.00141287)
(0.0264608 0.000495413 -0.000843653)
(0.0265668 0.000446756 -0.000490326)
(0.0261855 0.000423682 -0.000200796)
(0.0252447 0.0004337 0.000154314)
(0.023515 0.000458549 0.000683066)
(0.0205778 0.000481408 0.00147466)
(0.016016 0.000480645 0.00246699)
(0.00972715 0.000453664 0.00334376)
(0.00257196 0.000131032 0.00326184)
(0.00632507 0.00059687 -0.02745)
(0.0198166 0.00102583 -0.00896701)
(0.0252143 0.00124102 -0.00378524)
(0.0258076 0.00133312 -0.00208179)
(0.0259351 0.00132304 -0.00117281)
(0.0262709 0.00124885 -0.000629701)
(0.0263031 0.00115733 -0.000301926)
(0.0258482 0.00107644 -3.52192e-05)
(0.02486 0.00100393 0.000305495)
(0.0230908 0.000935891 0.00082012)
(0.0201289 0.000861242 0.00160211)
(0.0156131 0.000712027 0.00258418)
(0.00955822 0.000324794 0.00341147)
(0.0025641 -0.000789874 0.00329716)
(0.00625794 0.000686905 -0.0272835)
(0.0197893 0.001227 -0.0087615)
(0.0251567 0.00164456 -0.00362688)
(0.0256747 0.00188784 -0.00195059)
(0.0257366 0.00195659 -0.00105926)
(0.0260196 0.00192462 -0.000536508)
(0.0260051 0.00184351 -0.000224232)
(0.0255424 0.00172129 3.99153e-05)
(0.0245862 0.00155408 0.000378841)
(0.0228635 0.00135207 0.000890642)
(0.0199761 0.0011064 0.00167621)
(0.0155958 0.000751409 0.00265095)
(0.00978858 3.80961e-05 0.0034391)
(0.00279258 -0.00153366 0.00332309)
(0.00626189 0.000674325 -0.0272957)
(0.0198476 0.00129785 -0.00881409)
(0.0251804 0.0018956 -0.00371464)
(0.0256502 0.00230698 -0.00203242)
(0.0257017 0.00249911 -0.00112577)
(0.0260158 0.002555 -0.000588682)
(0.0260726 0.00251293 -0.000256174)
(0.0257051 0.00236963 3.21739e-05)
(0.0247914 0.00212743 0.000393028)
(0.023106 0.00178725 0.000922115)
(0.0202772 0.00133066 0.00171154)
(0.0159812 0.000732035 0.00266228)
(0.0102502 -0.000253858 0.00342019)
(0.00306902 -0.00198808 0.00333327)
(0.00634561 0.000697513 -0.0274826)
(0.0200113 0.00140087 -0.00908797)
(0.0253688 0.0020755 -0.00396774)
(0.0258704 0.00258242 -0.00224251)
(0.025972 0.0028653 -0.00129212)
(0.0263748 0.00298733 -0.000703762)
(0.0265321 0.0029796 -0.000316533)
(0.0261754 0.00284045 2.10809e-05)
(0.0252491 0.00255589 0.000412556)
(0.0235481 0.0021153 0.000971064)
(0.020713 0.00149837 0.001761)
(0.0164138 0.000712706 0.00267034)
(0.010614 -0.000456716 0.00339484)
(0.00321522 -0.00220408 0.00332631)
(0.0064856 0.000785483 -0.0277176)
(0.0202482 0.00151716 -0.00935789)
(0.0257337 0.00214906 -0.00419019)
(0.0263391 0.00265699 -0.00242477)
(0.0264973 0.00295904 -0.00142308)
(0.0269357 0.00309621 -0.000771288)
(0.0270648 0.00310534 -0.0003304)
(0.0266556 0.00297017 4.79556e-05)
(0.0256596 0.00266786 0.000475113)
(0.0238856 0.00218394 0.0010561)
(0.0209875 0.00150214 0.00183631)
(0.0166328 0.00064339 0.00269155)
(0.0107318 -0.00060624 0.00337576)
(0.0032294 -0.00232478 0.00330332)
(0.00662106 0.000844673 -0.0278102)
(0.020485 0.00151948 -0.0094291)
(0.0261748 0.00204237 -0.00423633)
(0.0268897 0.00248942 -0.00245714)
(0.027057 0.00276347 -0.00144052)
(0.0274351 0.00289173 -0.000756417)
(0.0274908 0.0028933 -0.000284611)
(0.0269955 0.00275616 0.00011991)
(0.0259024 0.00245518 0.000569243)
(0.0240311 0.00197611 0.00115535)
(0.0210515 0.0013102 0.00190893)
(0.0166441 0.000477308 0.00270992)
(0.0106978 -0.000763523 0.00336039)
(0.0032405 -0.00242753 0.00327312)
(0.00668705 0.000785153 -0.0277765)
(0.0206712 0.00133794 -0.00937456)
(0.0265655 0.00174712 -0.00417431)
(0.0273532 0.00212362 -0.00239622)
(0.0274878 0.0023576 -0.00138773)
(0.0277867 0.00245981 -0.00069756)
(0.0277613 0.0024439 -0.000213552)
(0.0271788 0.00230278 0.00020113)
(0.0259916 0.00201485 0.000657375)
(0.0240347 0.00156923 0.00123215)
(0.0210023 0.000965779 0.00194889)
(0.0165935 0.000216259 0.00270429)
(0.0106961 -0.00093455 0.00333579)
(0.00336448 -0.00246117 0.0032457)
(0.00670918 0.000632188 -0.027778)
(0.0208258 0.00103061 -0.00937742)
(0.0268734 0.00134345 -0.00416823)
(0.0276999 0.00165449 -0.00238842)
(0.0277886 0.00184381 -0.00138643)
(0.0280179 0.00191199 -0.000692504)
(0.0279253 0.00187558 -0.000199153)
(0.0272718 0.00172871 0.000222642)
(0.0260157 0.0014602 0.000677955)
(0.0240091 0.0010647 0.00123828)
(0.0209735 0.000549825 0.0019261)
(0.0166189 -8.24527e-05 0.00265537)
(0.0108308 -0.00105997 0.00328856)
(0.00358562 -0.00231847 0.00322382)
(0.00673613 0.000455234 -0.0278773)
(0.0209812 0.000703539 -0.00950244)
(0.0271304 0.000932589 -0.00427932)
(0.0279783 0.00117494 -0.0024876)
(0.0280258 0.00131284 -0.0014834)
(0.0282001 0.00134441 -0.000783291)
(0.0280557 0.00128778 -0.000280632)
(0.0273502 0.0011412 0.000147387)
(0.0260503 0.000902268 0.000601182)
(0.0240261 0.000572699 0.00115247)
(0.021018 0.00016599 0.0018268)
(0.016735 -0.000318475 0.00255599)
(0.0110437 -0.00105873 0.00321852)
(0.00377966 -0.00195406 0.00320513)
(0.00677959 0.000299126 -0.0280485)
(0.0211337 0.00044696 -0.00971484)
(0.027349 0.000599436 -0.00447096)
(0.0282196 0.000757975 -0.00265798)
(0.0282352 0.000837161 -0.00164487)
(0.0283657 0.000836225 -0.000937446)
(0.0281786 0.000769722 -0.000428392)
(0.0274327 0.000639162 6.58702e-07)
(0.0261039 0.000446768 0.000452828)
(0.0240747 0.000202029 0.00100193)
(0.0210947 -8.2248e-05 0.00167888)
(0.016861 -0.000404833 0.00243165)
(0.0112115 -0.000887983 0.00314516)
(0.00386156 -0.00143408 0.00318876)
(0.00685142 0.00014462 -0.0282338)
(0.0212872 0.0002617 -0.00992658)
(0.0275445 0.00035998 -0.00464989)
(0.0284456 0.00042715 -0.00281107)
(0.0284459 0.000449972 -0.00178766)
(0.0285411 0.0004341 -0.00107998)
(0.0283132 0.000380752 -0.000572793)
(0.0275292 0.000289117 -0.000142808)
(0.026174 0.0001635 0.000310035)
(0.0241366 1.52785e-05 0.00086037)
(0.0211645 -0.00014613 0.00154794)
(0.0169413 -0.000318303 0.00233143)
(0.0112859 -0.000575041 0.00309456)
(0.00387062 -0.000874929 0.00318142)
(0.00701429 3.24201e-05 -0.0281045)
(0.0215392 9.62853e-05 -0.00980067)
(0.0277813 0.000132918 -0.00456009)
(0.0286743 0.000142429 -0.00274802)
(0.028662 0.000140552 -0.00174564)
(0.0287295 0.000131089 -0.00105951)
(0.0284671 0.000109601 -0.000574011)
(0.0276512 7.47897e-05 -0.000157958)
(0.0262706 2.95575e-05 0.000284178)
(0.0242158 -2.07872e-05 0.000826127)
(0.0212336 -7.18438e-05 0.00151245)
(0.017001 -0.000122848 0.0023067)
(0.011323 -0.000201242 0.00309262)
(0.00389166 -0.000302673 0.00319854)
(0.00182315 -0.000706512 -0.0186387)
(0.00918106 -0.000650062 0.000468395)
(0.0128484 -0.000642997 0.00299588)
(0.0137785 -0.000608841 0.00304765)
(0.0141857 -0.000448522 0.00332796)
(0.0143434 -0.000231116 0.00356349)
(0.0137969 0.000168402 0.00366777)
(0.0122281 0.000764478 0.00376972)
(0.00971058 0.00121079 0.00400179)
(0.00635586 0.00125702 0.00432265)
(0.00240243 0.000595801 0.00475195)
(-0.00154863 -0.0014369 0.00542732)
(-0.00195318 -0.00360643 0.00602933)
(-0.000956989 -0.00385011 0.00513243)
(0.00109806 -0.0019787 -0.0214678)
(0.00868302 -0.00246251 -0.00301654)
(0.0124823 -0.00249887 -8.41842e-05)
(0.0138991 -0.00238907 0.000756152)
(0.0152684 -0.00207231 0.00172673)
(0.0167322 -0.00157221 0.00245653)
(0.0177305 -0.000929536 0.00296863)
(0.0181666 -0.000164047 0.00350138)
(0.0180264 0.000676186 0.00413357)
(0.0171369 0.00141233 0.00482747)
(0.0152878 0.00159335 0.00557809)
(0.0126571 0.000782042 0.00630937)
(0.00859464 -0.00182043 0.00729735)
(0.00325445 -0.00464422 0.0073564)
(0.000935016 -0.0024037 -0.0209661)
(0.00852 -0.00331297 -0.00280639)
(0.0120192 -0.00355026 -0.000491395)
(0.0132228 -0.0035311 -4.37275e-05)
(0.0144093 -0.00331153 0.000836939)
(0.0157959 -0.00292683 0.00157609)
(0.0168416 -0.00240866 0.00211672)
(0.0174204 -0.00176998 0.00268063)
(0.0175828 -0.00102981 0.00336886)
(0.0173115 -0.000310065 0.00419107)
(0.0163324 6.32047e-05 0.00516587)
(0.0141464 -0.000291483 0.0063077)
(0.010397 -0.00151547 0.00773729)
(0.00427464 -0.00234065 0.00795202)
(0.00086409 -0.00276829 -0.0209351)
(0.00834103 -0.00395915 -0.00281679)
(0.0116381 -0.00425302 -0.000689647)
(0.0127348 -0.00417527 -0.000397777)
(0.0138788 -0.00389938 0.000358841)
(0.0151607 -0.00351534 0.00102372)
(0.0160898 -0.00304554 0.00151632)
(0.0165669 -0.00247776 0.00205981)
(0.0166449 -0.00181989 0.00278847)
(0.0162483 -0.00113287 0.00375)
(0.0151424 -0.000560567 0.00499201)
(0.012948 -0.000296493 0.00650338)
(0.0092766 -0.000409761 0.00819778)
(0.00347663 -0.000225989 0.00828154)
(0.000785483 -0.00294299 -0.0208194)
(0.00813848 -0.00424824 -0.0027599)
(0.0112461 -0.00451569 -0.000860897)
(0.0122543 -0.00434064 -0.000714278)
(0.0133753 -0.00397778 -6.05592e-05)
(0.0145769 -0.00355804 0.000519632)
(0.0154033 -0.00310291 0.000962671)
(0.0157972 -0.00258253 0.00148126)
(0.0158294 -0.00198134 0.00224038)
(0.0154132 -0.00132539 0.00333478)
(0.0142784 -0.000705152 0.0048325)
(0.0120221 -0.000263569 0.00666147)
(0.00830672 7.07506e-05 0.00851492)
(0.00288707 0.000806412 0.00847453)
(0.00071953 -0.00295751 -0.0206467)
(0.00793144 -0.00429345 -0.00269275)
(0.010864 -0.00448214 -0.00104333)
(0.0118012 -0.00419396 -0.00100438)
(0.0129119 -0.00374122 -0.000409113)
(0.0140619 -0.00327934 0.000122179)
(0.0148335 -0.00281352 0.000517408)
(0.0151841 -0.00232448 0.00103003)
(0.0152112 -0.00178598 0.00181861)
(0.0148202 -0.00121808 0.00300686)
(0.0137122 -0.000684243 0.00468471)
(0.01145 -0.000259187 0.0067252)
(0.0077055 0.000241701 0.00867065)
(0.00250574 0.00125048 0.00856291)
(0.000702431 -0.00284398 -0.0205588)
(0.00772943 -0.00411833 -0.00278421)
(0.0105165 -0.0041968 -0.00130051)
(0.0113953 -0.00380206 -0.00131876)
(0.0124814 -0.00328229 -0.000740565)
(0.0136135 -0.00278978 -0.000226666)
(0.0143403 -0.00232819 0.000164936)
(0.0146654 -0.00187576 0.000681835)
(0.0147025 -0.00141213 0.00149301)
(0.0143498 -0.000957336 0.00274529)
(0.0132808 -0.000558822 0.00454132)
(0.0110274 -0.000235234 0.00671595)
(0.00726915 0.000263633 0.00872073)
(0.00223081 0.00135445 0.00856667)
(0.000714764 -0.00261993 -0.0205904)
(0.00756893 -0.0037193 -0.00297145)
(0.0102249 -0.00368712 -0.00160415)
(0.0110366 -0.00322097 -0.00164867)
(0.0120812 -0.00267676 -0.0010577)
(0.013185 -0.00218896 -0.00052959)
(0.0138808 -0.00175682 -0.000128726)
(0.0141898 -0.00135681 0.000386686)
(0.0142356 -0.00097793 0.0012154)
(0.0139229 -0.000642229 0.00252288)
(0.0128958 -0.000388069 0.00440558)
(0.0106599 -0.000196192 0.00667191)
(0.00690039 0.000206887 0.00871404)
(0.00199626 0.00122825 0.00851448)
(0.00070624 -0.00228482 -0.0206651)
(0.00743671 -0.00309975 -0.00315559)
(0.00998184 -0.00295996 -0.00189496)
(0.0107316 -0.00247634 -0.00195427)