/*--------------------------------*- C++ -*----------------------------------*\
| =========                 |                                                 |
| \\      /  F ield         | OpenFOAM: The Open Source CFD Toolbox           |
|  \\    /   O peration     | Version:  5.0                                   |
|   \\  /    A nd           | Web:      www.OpenFOAM.org                      |
|    \\/     M anipulation  |                                                 |
\*---------------------------------------------------------------------------*/
FoamFile
{
    version     2.0;
    format      ascii;
    class       volScalarField;
    location    "0.1";
    object      p;
}
// * * * * * * * * * * * * * * * * * * * * * * * * * * * * * * * * * * * * * //

dimensions      [0 2 -2 0 0 0 0];

internalField   nonuniform List<scalar> 
50
(
1.33629e-07
1.93715e-07
1.77877e-08
1.65516e-07
2.56428e-07
1.33349e-07
1.9361e-07
1.73865e-08
1.63194e-07
2.52967e-07
1.33733e-07
1.94186e-07
1.67561e-08
1.61833e-07
2.50672e-07
1.34401e-07
1.95001e-07
1.64641e-08
1.61666e-07
2.49183e-07
1.35128e-07
1.95813e-07
1.64018e-08
1.62085e-07
2.47836e-07
1.3568e-07
1.96345e-07
1.65969e-08
1.63113e-07
2.46655e-07
1.36155e-07
1.96778e-07
1.69966e-08
1.6456e-07
2.45652e-07
1.36527e-07
1.97024e-07
1.76054e-08
1.66518e-07
2.44931e-07
1.3733e-07
1.97701e-07
1.84654e-08
1.69526e-07
2.44963e-07
1.38751e-07
1.99085e-07
1.90065e-08
1.73229e-07
2.46308e-07
)
;

boundaryField
{
    top
    {
        type            zeroGradient;
    }
    bottom
    {
        type            zeroGradient;
    }
    inlet
    {
        type            fixedValue;
        value           uniform 0;
    }
    outlet
    {
        type            fixedValue;
        value           nonuniform 0();
    }
    frontAndBack
    {
        type            empty;
    }
    procBoundary0to1
    {
        type            processor;
        value           nonuniform List<scalar> 10(-1.80677e-07 -1.78851e-07 -1.78239e-07 -1.78424e-07 -1.78872e-07 -1.79537e-07 -1.80393e-07 -1.81452e-07 -1.83309e-07 -1.86337e-07);
    }
}


// ************************************************************************* //
