/*--------------------------------*- C++ -*----------------------------------*\
| =========                 |                                                 |
| \\      /  F ield         | OpenFOAM: The Open Source CFD Toolbox           |
|  \\    /   O peration     | Version:  5.0                                   |
|   \\  /    A nd           | Web:      www.OpenFOAM.org                      |
|    \\/     M anipulation  |                                                 |
\*---------------------------------------------------------------------------*/
FoamFile
{
    version     2.0;
    format      ascii;
    class       surfaceScalarField;
    location    "0.1";
    object      phi;
}
// * * * * * * * * * * * * * * * * * * * * * * * * * * * * * * * * * * * * * //

dimensions      [0 3 -1 0 0 0 0];

internalField   nonuniform List<scalar> 
85
(
4.98857e-07
-6.35103e-14
4.98857e-07
-6.73772e-14
4.98857e-07
5.6082e-14
4.98857e-07
-8.87239e-14
-2.28239e-13
1.49668e-06
-1.12511e-13
1.49669e-06
-1.1436e-13
1.49668e-06
9.1719e-14
1.49669e-06
-2.07823e-13
-5.278e-13
2.49484e-06
-7.24584e-14
2.49484e-06
-7.04003e-14
2.49484e-06
7.37215e-14
2.49484e-06
-2.29352e-13
-6.81801e-13
3.49349e-06
4.88947e-14
3.49349e-06
5.88735e-14
3.49349e-06
4.42617e-14
3.49349e-06
-7.66263e-14
-5.99155e-13
4.49279e-06
2.09047e-13
4.49279e-06
2.26032e-13
4.49279e-06
1.29342e-14
4.49279e-06
1.83861e-13
-3.26248e-13
5.49278e-06
3.27245e-13
5.49278e-06
3.4778e-13
5.49278e-06
-2.12554e-14
5.49278e-06
4.12149e-13
7.51774e-15
6.49349e-06
3.52221e-13
6.49349e-06
3.71512e-13
6.49349e-06
-5.88903e-14
6.49349e-06
4.76977e-13
2.44823e-13
7.49483e-06
2.61822e-13
7.49483e-06
2.74179e-13
7.49483e-06
-8.57708e-14
7.49483e-06
3.45782e-13
2.898e-13
8.49668e-06
1.10502e-13
8.49668e-06
1.16718e-13
8.49668e-06
-5.58594e-14
8.49668e-06
1.31687e-13
1.5525e-13
9.49886e-06
9.49886e-06
9.49886e-06
9.49886e-06
)
;

boundaryField
{
    top
    {
        type            calculated;
        value           uniform 0;
    }
    bottom
    {
        type            calculated;
        value           uniform 0;
    }
    inlet
    {
        type            calculated;
        value           nonuniform List<scalar> 10(-4.98857e-07 -1.49668e-06 -2.49484e-06 -3.49349e-06 -4.49279e-06 -5.49278e-06 -6.49349e-06 -7.49483e-06 -8.49668e-06 -9.49885e-06);
    }
    outlet
    {
        type            calculated;
        value           nonuniform 0();
    }
    frontAndBack
    {
        type            empty;
        value           nonuniform 0();
    }
    procBoundary0to1
    {
        type            processor;
        value           nonuniform List<scalar> 10(4.98857e-07 1.49669e-06 2.49484e-06 3.49349e-06 4.49278e-06 5.49278e-06 6.49349e-06 7.49483e-06 8.49668e-06 9.49886e-06);
    }
}


// ************************************************************************* //
