/*--------------------------------*- C++ -*----------------------------------*\
| =========                 |                                                 |
| \\      /  F ield         | OpenFOAM: The Open Source CFD Toolbox           |
|  \\    /   O peration     | Version:  5.0                                   |
|   \\  /    A nd           | Web:      www.OpenFOAM.org                      |
|    \\/     M anipulation  |                                                 |
\*---------------------------------------------------------------------------*/
FoamFile
{
    version     2.0;
    format      ascii;
    class       volVectorField;
    location    "0.1";
    object      U;
}
// * * * * * * * * * * * * * * * * * * * * * * * * * * * * * * * * * * * * * //

dimensions      [0 1 -1 0 0 0 0];

internalField   nonuniform List<vector> 
50
(
(0.00498857 -3.95143e-11 -1.30003e-31)
(0.00498857 -3.82586e-11 -1.29199e-31)
(0.00498857 3.81375e-11 1.66257e-31)
(0.00498857 -5.38753e-11 1.65855e-31)
(0.00498857 -1.3775e-10 1.60345e-30)
(0.0149668 -1.10117e-10 8.47592e-44)
(0.0149668 -1.1562e-10 6.0023e-31)
(0.0149668 7.06295e-11 1.05509e-30)
(0.0149669 -1.98026e-10 4.00791e-30)
(0.0149669 -4.23803e-10 -3.49855e-31)
(0.0249484 -1.05474e-10 4.07934e-31)
(0.0249484 -1.0218e-10 -2.84628e-30)
(0.0249484 9.87101e-11 3.30909e-32)
(0.0249484 -2.23437e-10 4.78514e-31)
(0.0249484 -6.22817e-10 -6.95674e-31)
(0.0349349 -3.38447e-11 6.13917e-31)
(0.0349349 -3.25832e-11 -3.2096e-30)
(0.0349349 5.14834e-11 -6.81917e-32)
(0.0349349 -2.20099e-10 7.53684e-31)
(0.0349349 -7.24288e-10 3.59673e-30)
(0.0449279 1.37434e-10 -3.45345e-30)
(0.0449279 1.57165e-10 2.87067e-30)
(0.0449279 3.63418e-11 -1.03495e-31)
(0.0449279 6.62689e-11 -2.72375e-30)
(0.0449278 -4.74607e-10 3.28245e-30)
(0.0549278 2.78226e-10 8.2689e-31)
(0.0549278 2.90387e-10 1.85189e-30)
(0.0549278 -9.14474e-12 6.76404e-31)
(0.0549278 3.0617e-10 -2.53156e-30)
(0.0549278 -1.78166e-10 -3.50473e-31)
(0.0649349 3.76903e-10 5.73136e-44)
(0.0649349 4.07403e-10 -6.94286e-31)
(0.0649349 -3.34953e-11 1.03149e-30)
(0.0649349 5.15857e-10 6.96536e-30)
(0.0649349 1.9058e-10 -1.76413e-30)
(0.0749483 3.14237e-10 -7.92094e-31)
(0.0749483 3.20258e-10 -1.18718e-30)
(0.0749483 -8.53329e-11 -3.12019e-32)
(0.0749483 4.24633e-10 -1.01589e-29)
(0.0749483 2.87306e-10 1.06774e-30)
(0.0849668 2.04789e-10 2.28625e-30)
(0.0849668 2.21298e-10 1.98641e-30)
(0.0849668 -7.20536e-11 2.8818e-32)
(0.0849668 2.75784e-10 -6.86428e-30)
(0.0849668 2.78404e-10 1.40883e-30)
(0.0949885 6.28828e-11 2.86067e-31)
(0.0949886 5.99728e-11 5.57784e-31)
(0.0949886 -3.53925e-11 1.79694e-32)
(0.0949886 8.58825e-11 1.87365e-30)
(0.0949886 9.41298e-11 6.23081e-31)
)
;

boundaryField
{
    top
    {
        type            fixedValue;
        value           uniform (0.1 0 0);
    }
    bottom
    {
        type            fixedValue;
        value           uniform (0 0 0);
    }
    inlet
    {
        type            zeroGradient;
    }
    outlet
    {
        type            zeroGradient;
    }
    frontAndBack
    {
        type            empty;
    }
    procBoundary0to1
    {
        type            processor;
        value           nonuniform List<vector> 10((0.00498857 9.99874e-11 5.62501e-31) (0.0149669 2.94604e-10 2.08622e-30) (0.0249484 3.45983e-10 -3.55445e-32) (0.0349349 2.88821e-10 1.44571e-30) (0.0449278 -4.0096e-11 7.94358e-31) (0.0549278 -3.32173e-10 1.32117e-42) (0.0649349 -5.93354e-10 1.5633e-30) (0.0749483 -5.32901e-10 5.96496e-30) (0.0849668 -3.76522e-10 -4.99702e-30) (0.0949886 -1.22075e-10 -1.13079e-30));
    }
}


// ************************************************************************* //
