/*--------------------------------*- C++ -*----------------------------------*\
| =========                 |                                                 |
| \\      /  F ield         | OpenFOAM: The Open Source CFD Toolbox           |
|  \\    /   O peration     | Version:  5.0                                   |
|   \\  /    A nd           | Web:      www.OpenFOAM.org                      |
|    \\/     M anipulation  |                                                 |
\*---------------------------------------------------------------------------*/
FoamFile
{
    version     2.0;
    format      ascii;
    class       surfaceScalarField;
    location    "0.4";
    object      phi;
}
// * * * * * * * * * * * * * * * * * * * * * * * * * * * * * * * * * * * * * //

dimensions      [0 3 -1 0 0 0 0];

internalField   nonuniform List<scalar> 
180
(
5e-07
-3.56772e-16
5e-07
-1.87858e-16
5e-07
6.18224e-17
5e-07
-5.42836e-17
5e-07
4.87676e-17
5e-07
-4.87227e-17
5e-07
5.32461e-17
5e-07
-6.04942e-17
5e-07
1.68062e-16
3.26887e-16
1.5e-06
-7.16426e-16
1.5e-06
-4.22394e-16
1.5e-06
1.05581e-16
1.5e-06
-9.52087e-17
1.5e-06
8.54378e-17
1.5e-06
-8.53551e-17
1.5e-06
9.3047e-17
1.5e-06
-1.03918e-16
1.5e-06
3.62865e-16
6.39654e-16
2.5e-06
-7.785e-16
2.5e-06
-5.01866e-16
2.5e-06
9.71414e-17
2.5e-06
-9.05044e-17
2.5e-06
8.10591e-17
2.5e-06
-8.09868e-17
2.5e-06
8.78703e-17
2.5e-06
-9.67805e-17
2.5e-06
4.03698e-16
6.64783e-16
3.5e-06
-5.19068e-16
3.5e-06
-3.5674e-16
3.5e-06
5.52843e-17
3.5e-06
-5.36651e-17
3.5e-06
4.79623e-17
3.5e-06
-4.79265e-17
3.5e-06
5.12527e-17
3.5e-06
-5.69263e-17
3.5e-06
2.37597e-16
3.9191e-16
4.5e-06
-5.70384e-17
4.5e-06
-5.78396e-17
4.5e-06
-2.37356e-18
4.5e-06
-8.21407e-20
4.5e-06
8.25784e-21
4.5e-06
-4.71594e-20
4.5e-06
-1.47762e-18
4.5e-06
-1.11417e-18
4.5e-06
-5.78622e-17
-5.64828e-17
5.5e-06
4.15457e-16
5.5e-06
2.51755e-16
5.5e-06
-5.95921e-17
5.5e-06
5.35753e-17
5.5e-06
-4.79865e-17
5.5e-06
4.785e-17
5.5e-06
-5.39132e-17
5.5e-06
5.49564e-17
5.5e-06
-3.42724e-16
-4.94504e-16
6.5e-06
7.0254e-16
6.5e-06
4.25122e-16
6.5e-06
-1.00289e-16
6.5e-06
9.05799e-17
6.5e-06
-8.11713e-17
6.5e-06
8.0947e-17
6.5e-06
-8.97604e-17
6.5e-06
9.54497e-17
6.5e-06
-4.80719e-16
-7.39848e-16
7.5e-06
6.75379e-16
7.5e-06
3.81182e-16
7.5e-06
-1.07303e-16
7.5e-06
9.54158e-17
7.5e-06
-8.56137e-17
7.5e-06
8.53589e-17
7.5e-06
-9.39973e-17
7.5e-06
1.03314e-16
7.5e-06
-4.04481e-16
-6.8008e-16
8.5e-06
3.44967e-16
8.5e-06
1.76178e-16
8.5e-06
-6.23456e-17
8.5e-06
5.44438e-17
8.5e-06
-4.88944e-17
8.5e-06
4.87396e-17
8.5e-06
-5.34796e-17
8.5e-06
6.03791e-17
8.5e-06
-1.80005e-16
-3.38393e-16
9.5e-06
9.5e-06
9.5e-06
9.5e-06
9.5e-06
9.5e-06
9.5e-06
9.5e-06
9.5e-06
)
;

boundaryField
{
    top
    {
        type            calculated;
        value           uniform 0;
    }
    bottom
    {
        type            calculated;
        value           uniform 0;
    }
    inlet
    {
        type            calculated;
        value           nonuniform List<scalar> 10(-5e-07 -1.5e-06 -2.5e-06 -3.5e-06 -4.5e-06 -5.5e-06 -6.5e-06 -7.5e-06 -8.5e-06 -9.5e-06);
    }
    outlet
    {
        type            calculated;
        value           nonuniform List<scalar> 10(5e-07 1.5e-06 2.5e-06 3.5e-06 4.5e-06 5.5e-06 6.5e-06 7.5e-06 8.5e-06 9.5e-06);
    }
    frontAndBack
    {
        type            empty;
        value           nonuniform 0();
    }
}


// ************************************************************************* //
