/*--------------------------------*- C++ -*----------------------------------*\
| =========                 |                                                 |
| \\      /  F ield         | OpenFOAM: The Open Source CFD Toolbox           |
|  \\    /   O peration     | Version:  5.0                                   |
|   \\  /    A nd           | Web:      www.OpenFOAM.org                      |
|    \\/     M anipulation  |                                                 |
\*---------------------------------------------------------------------------*/
FoamFile
{
    version     2.0;
    format      ascii;
    class       volVectorField;
    location    "166";
    object      U;
}
// * * * * * * * * * * * * * * * * * * * * * * * * * * * * * * * * * * * * * //

dimensions      [0 1 -1 0 0 0 0];

internalField   nonuniform List<vector> 
1568
(
(9.26699e-13 -5.03334e-13 0)
(-1.83095e-12 7.09977e-12 0)
(1.0084e-11 -1.51552e-11 0)
(3.60945e-11 -1.34954e-11 0)
(5.07206e-11 -7.3468e-12 0)
(7.02723e-11 -1.32737e-11 0)
(9.65106e-11 -1.43121e-11 0)
(1.21795e-10 -1.36081e-11 0)
(1.47424e-10 -1.43571e-11 0)
(1.74678e-10 -1.49515e-11 0)
(2.02253e-10 -1.49586e-11 0)
(2.29525e-10 -1.47491e-11 0)
(2.5646e-10 -1.43829e-11 0)
(2.82769e-10 -1.39278e-11 0)
(3.08111e-10 -1.34247e-11 0)
(3.32262e-10 -1.27725e-11 0)
(3.5495e-10 -1.19904e-11 0)
(3.76017e-10 -1.11899e-11 0)
(3.95297e-10 -1.02492e-11 0)
(4.12643e-10 -9.21813e-12 0)
(4.27901e-10 -8.04639e-12 0)
(4.41015e-10 -6.83852e-12 0)
(4.51786e-10 -5.12135e-12 0)
(4.60281e-10 -3.53627e-12 0)
(4.66565e-10 -2.11671e-12 0)
(4.70607e-10 -9.84504e-13 0)
(4.72206e-10 -3.74824e-14 0)
(4.71358e-10 6.10945e-13 0)
(4.67949e-10 1.74912e-12 0)
(4.6224e-10 2.7195e-12 0)
(4.54509e-10 4.13808e-12 0)
(4.44904e-10 5.53608e-12 0)
(4.33315e-10 6.93236e-12 0)
(4.1988e-10 7.89174e-12 0)
(4.04763e-10 8.94405e-12 0)
(3.88102e-10 9.62759e-12 0)
(3.69974e-10 1.05095e-11 0)
(3.50477e-10 1.10787e-11 0)
(3.29875e-10 1.17554e-11 0)
(3.08197e-10 1.21793e-11 0)
(2.85619e-10 1.26131e-11 0)
(2.62408e-10 1.27702e-11 0)
(2.38775e-10 1.29967e-11 0)
(2.14836e-10 1.30605e-11 0)
(1.90877e-10 1.30942e-11 0)
(1.67132e-10 1.28943e-11 0)
(1.43861e-10 1.26458e-11 0)
(1.21254e-10 1.21689e-11 0)
(9.95692e-11 1.16084e-11 0)
(7.91643e-11 1.08227e-11 0)
(6.0142e-11 9.98362e-12 0)
(4.27386e-11 8.96909e-12 0)
(2.86642e-11 7.365e-12 0)
(1.53121e-11 7.6516e-12 0)
(5.33684e-12 3.67069e-12 0)
(9.24833e-13 1.54241e-12 0)
(1.10165e-11 -9.40706e-12 0)
(6.01969e-13 -1.93886e-11 0)
(2.03787e-11 -2.1867e-11 0)
(2.40235e-11 -2.40293e-11 0)
(4.65677e-11 -3.26381e-11 0)
(6.57176e-11 -3.5061e-11 0)
(8.68366e-11 -3.69416e-11 0)
(1.11066e-10 -3.8901e-11 0)
(1.3528e-10 -4.03072e-11 0)
(1.60091e-10 -4.10283e-11 0)
(1.85364e-10 -4.10645e-11 0)
(2.10839e-10 -4.07787e-11 0)
(2.35875e-10 -4.00907e-11 0)
(2.60194e-10 -3.89109e-11 0)
(2.83716e-10 -3.72341e-11 0)
(3.06072e-10 -3.52768e-11 0)
(3.27126e-10 -3.2935e-11 0)
(3.467e-10 -3.03306e-11 0)
(3.64637e-10 -2.74384e-11 0)
(3.80753e-10 -2.44456e-11 0)
(3.94979e-10 -2.12264e-11 0)
(4.07177e-10 -1.79064e-11 0)
(4.17395e-10 -1.45613e-11 0)
(4.25543e-10 -1.14763e-11 0)
(4.31601e-10 -8.13178e-12 0)
(4.35415e-10 -4.58203e-12 0)
(4.36934e-10 -6.65617e-13 0)
(4.36144e-10 3.21387e-12 0)
(4.33175e-10 6.95936e-12 0)
(4.28116e-10 1.03202e-11 0)
(4.20995e-10 1.33978e-11 0)
(4.12071e-10 1.62253e-11 0)
(4.01542e-10 1.90295e-11 0)
(3.89361e-10 2.16514e-11 0)
(3.75501e-10 2.41987e-11 0)
(3.60062e-10 2.64767e-11 0)
(3.43272e-10 2.86044e-11 0)
(3.25316e-10 3.03827e-11 0)
(3.06138e-10 3.19902e-11 0)
(2.86094e-10 3.32798e-11 0)
(2.65238e-10 3.43729e-11 0)
(2.43603e-10 3.5121e-11 0)
(2.2148e-10 3.56663e-11 0)
(1.99233e-10 3.57852e-11 0)
(1.7693e-10 3.56572e-11 0)
(1.54851e-10 3.51793e-11 0)
(1.33121e-10 3.43894e-11 0)
(1.12066e-10 3.32133e-11 0)
(9.1996e-11 3.16821e-11 0)
(7.29295e-11 2.9647e-11 0)
(5.51531e-11 2.74475e-11 0)
(3.94951e-11 2.41044e-11 0)
(2.48538e-11 2.04734e-11 0)
(1.43322e-11 1.62294e-11 0)
(5.81977e-12 1.07943e-11 0)
(4.65512e-13 4.76123e-12 0)
(-4.98602e-13 -1.4875e-11 0)
(3.22282e-13 -1.88833e-11 0)
(1.06289e-11 -3.97665e-11 0)
(2.91173e-11 -4.49836e-11 0)
(3.95961e-11 -5.1261e-11 0)
(5.7241e-11 -5.80759e-11 0)
(7.89578e-11 -6.11032e-11 0)
(1.00368e-10 -6.4087e-11 0)
(1.22068e-10 -6.64452e-11 0)
(1.45391e-10 -6.76324e-11 0)
(1.68971e-10 -6.7747e-11 0)
(1.92099e-10 -6.71535e-11 0)
(2.15054e-10 -6.59018e-11 0)
(2.37581e-10 -6.39438e-11 0)
(2.59213e-10 -6.13912e-11 0)
(2.79851e-10 -5.82301e-11 0)
(2.99319e-10 -5.45194e-11 0)
(3.17426e-10 -5.03602e-11 0)
(3.34001e-10 -4.57573e-11 0)
(3.48955e-10 -4.08127e-11 0)
(3.62159e-10 -3.5542e-11 0)
(3.73581e-10 -3.00809e-11 0)
(3.83113e-10 -2.44274e-11 0)
(3.90699e-10 -1.88183e-11 0)
(3.96214e-10 -1.30491e-11 0)
(3.99699e-10 -7.23935e-12 0)
(4.01174e-10 -1.24484e-12 0)
(4.0068e-10 4.60392e-12 0)
(3.98166e-10 1.04888e-11 0)
(3.93731e-10 1.59927e-11 0)
(3.87493e-10 2.14951e-11 0)
(3.79502e-10 2.66514e-11 0)
(3.69789e-10 3.17365e-11 0)
(3.58471e-10 3.62624e-11 0)
(3.45682e-10 4.0573e-11 0)
(3.31537e-10 4.4264e-11 0)
(3.16089e-10 4.77672e-11 0)
(2.99451e-10 5.06444e-11 0)
(2.81857e-10 5.32029e-11 0)
(2.63296e-10 5.51927e-11 0)
(2.4394e-10 5.68287e-11 0)
(2.24055e-10 5.79348e-11 0)
(2.03753e-10 5.87502e-11 0)
(1.83142e-10 5.90368e-11 0)
(1.62546e-10 5.89169e-11 0)
(1.42074e-10 5.82157e-11 0)
(1.2199e-10 5.69745e-11 0)
(1.02489e-10 5.50347e-11 0)
(8.37737e-11 5.25404e-11 0)
(6.64196e-11 4.91892e-11 0)
(4.98112e-11 4.50981e-11 0)
(3.49206e-11 4.03547e-11 0)
(2.33472e-11 3.39653e-11 0)
(1.17687e-11 2.66622e-11 0)
(3.76801e-12 1.76917e-11 0)
(1.95553e-13 7.22059e-12 0)
(-3.72309e-12 -1.03874e-11 0)
(5.39484e-12 -3.53592e-11 0)
(1.12456e-11 -4.42699e-11 0)
(2.19352e-11 -5.96245e-11 0)
(3.53246e-11 -6.92965e-11 0)
(5.13966e-11 -7.56558e-11 0)
(7.06278e-11 -8.07251e-11 0)
(8.97158e-11 -8.53195e-11 0)
(1.09798e-10 -8.82454e-11 0)
(1.31018e-10 -8.95739e-11 0)
(1.5237e-10 -9.00114e-11 0)
(1.73649e-10 -8.93221e-11 0)
(1.94654e-10 -8.76208e-11 0)
(2.15098e-10 -8.50479e-11 0)
(2.34924e-10 -8.16454e-11 0)
(2.53858e-10 -7.74018e-11 0)
(2.71681e-10 -7.2531e-11 0)
(2.88303e-10 -6.69647e-11 0)
(3.03595e-10 -6.09085e-11 0)
(3.17378e-10 -5.43235e-11 0)
(3.29569e-10 -4.73954e-11 0)
(3.4008e-10 -4.00865e-11 0)
(3.48857e-10 -3.26645e-11 0)
(3.55798e-10 -2.50294e-11 0)
(3.60888e-10 -1.73979e-11 0)
(3.6414e-10 -9.53637e-12 0)
(3.65587e-10 -1.7455e-12 0)
(3.65263e-10 6.08311e-12 0)
(3.63211e-10 1.36301e-11 0)
(3.59454e-10 2.11014e-11 0)
(3.53895e-10 2.82007e-11 0)
(3.46603e-10 3.51314e-11 0)
(3.37759e-10 4.1563e-11 0)
(3.27436e-10 4.77096e-11 0)
(3.15665e-10 5.32535e-11 0)
(3.0261e-10 5.84237e-11 0)
(2.88438e-10 6.29054e-11 0)
(2.73178e-10 6.7004e-11 0)
(2.56938e-10 7.04015e-11 0)
(2.39952e-10 7.32767e-11 0)
(2.2233e-10 7.54937e-11 0)
(2.04112e-10 7.72585e-11 0)
(1.85502e-10 7.83048e-11 0)
(1.66715e-10 7.88581e-11 0)
(1.47851e-10 7.86568e-11 0)
(1.29099e-10 7.78004e-11 0)
(1.10584e-10 7.61181e-11 0)
(9.27328e-11 7.36233e-11 0)
(7.57106e-11 7.01629e-11 0)
(5.95156e-11 6.58256e-11 0)
(4.4844e-11 6.02891e-11 0)
(3.14462e-11 5.36939e-11 0)
(1.89562e-11 4.53022e-11 0)
(1.0741e-11 3.55522e-11 0)
(4.06291e-12 2.3173e-11 0)
(4.00062e-13 9.30837e-12 0)
(1.94439e-12 -1.274e-11 0)
(2.59509e-12 -3.61928e-11 0)
(1.07697e-11 -5.59213e-11 0)
(1.95977e-11 -6.99617e-11 0)
(3.12102e-11 -8.20046e-11 0)
(4.60815e-11 -9.01357e-11 0)
(6.2598e-11 -9.70367e-11 0)
(7.93577e-11 -1.02647e-10 0)
(9.76348e-11 -1.06153e-10 0)
(1.16906e-10 -1.08027e-10 0)
(1.36144e-10 -1.08575e-10 0)
(1.55253e-10 -1.07854e-10 0)
(1.74168e-10 -1.05909e-10 0)
(1.92744e-10 -1.02793e-10 0)
(2.10712e-10 -9.8555e-11 0)
(2.27836e-10 -9.34532e-11 0)
(2.4403e-10 -8.74397e-11 0)
(2.59143e-10 -8.07077e-11 0)
(2.72997e-10 -7.3297e-11 0)
(2.85542e-10 -6.54121e-11 0)
(2.96664e-10 -5.70193e-11 0)
(3.06255e-10 -4.8322e-11 0)
(3.1425e-10 -3.93028e-11 0)
(3.20577e-10 -3.01546e-11 0)
(3.25219e-10 -2.07759e-11 0)
(3.28224e-10 -1.13865e-11 0)
(3.29597e-10 -1.92269e-12 0)
(3.2939e-10 7.37332e-12 0)
(3.27618e-10 1.65183e-11 0)
(3.2429e-10 2.52689e-11 0)
(3.19411e-10 3.36983e-11 0)
(3.12943e-10 4.17182e-11 0)
(3.04946e-10 4.93934e-11 0)
(2.9556e-10 5.65514e-11 0)
(2.8492e-10 6.32619e-11 0)
(2.73126e-10 6.94362e-11 0)
(2.60279e-10 7.50814e-11 0)
(2.46466e-10 8.00374e-11 0)
(2.31765e-10 8.44244e-11 0)
(2.16325e-10 8.80969e-11 0)
(2.00323e-10 9.10858e-11 0)
(1.83873e-10 9.32794e-11 0)
(1.67083e-10 9.48031e-11 0)
(1.50043e-10 9.54465e-11 0)
(1.32929e-10 9.52767e-11 0)
(1.15926e-10 9.41791e-11 0)
(9.92051e-11 9.21527e-11 0)
(8.29753e-11 8.91115e-11 0)
(6.75199e-11 8.50177e-11 0)
(5.32575e-11 7.96102e-11 0)
(3.96517e-11 7.28462e-11 0)
(2.73048e-11 6.47202e-11 0)
(1.81942e-11 5.48656e-11 0)
(8.58293e-12 4.25715e-11 0)
(2.49563e-12 2.78082e-11 0)
(-2.59638e-13 1.08476e-11 0)
(5.26556e-13 -1.64447e-11 0)
(2.84397e-12 -4.06668e-11 0)
(8.95906e-12 -6.27062e-11 0)
(1.74296e-11 -7.99616e-11 0)
(2.79603e-11 -9.36076e-11 0)
(4.08905e-11 -1.04003e-10 0)
(5.47349e-11 -1.12847e-10 0)
(6.95733e-11 -1.19367e-10 0)
(8.59583e-11 -1.23387e-10 0)
(1.02918e-10 -1.25738e-10 0)
(1.19882e-10 -1.26561e-10 0)
(1.36926e-10 -1.25803e-10 0)
(1.53883e-10 -1.23505e-10 0)
(1.70497e-10 -1.19836e-10 0)
(1.86541e-10 -1.14976e-10 0)
(2.01874e-10 -1.08989e-10 0)
(2.16369e-10 -1.01994e-10 0)
(2.29879e-10 -9.41486e-11 0)
(2.42283e-10 -8.55618e-11 0)
(2.53497e-10 -7.63239e-11 0)
(2.63448e-10 -6.65959e-11 0)
(2.72037e-10 -5.64495e-11 0)
(2.79208e-10 -4.59892e-11 0)
(2.84924e-10 -3.52773e-11 0)
(2.89139e-10 -2.43972e-11 0)
(2.91868e-10 -1.34183e-11 0)
(2.93162e-10 -2.47771e-12 0)
(2.93022e-10 8.35849e-12 0)
(2.91462e-10 1.89286e-11 0)
(2.88504e-10 2.91913e-11 0)
(2.84139e-10 3.90111e-11 0)
(2.78388e-10 4.83785e-11 0)
(2.71331e-10 5.72631e-11 0)
(2.63039e-10 6.56813e-11 0)
(2.53606e-10 7.35366e-11 0)
(2.43115e-10 8.07987e-11 0)
(2.31638e-10 8.73857e-11 0)
(2.19292e-10 9.32604e-11 0)
(2.06172e-10 9.83778e-11 0)
(1.924e-10 1.02745e-10 0)
(1.78099e-10 1.06285e-10 0)
(1.6338e-10 1.08964e-10 0)
(1.48326e-10 1.10704e-10 0)
(1.33075e-10 1.11484e-10 0)
(1.17807e-10 1.11265e-10 0)
(1.02628e-10 1.10013e-10 0)
(8.7687e-11 1.07617e-10 0)
(7.33715e-11 1.0403e-10 0)
(5.9679e-11 9.92042e-11 0)
(4.66182e-11 9.28699e-11 0)
(3.51683e-11 8.48412e-11 0)
(2.47999e-11 7.52294e-11 0)
(1.45071e-11 6.34393e-11 0)
(8.08151e-12 4.8966e-11 0)
(3.32083e-12 3.23036e-11 0)
(1.97884e-13 1.21087e-11 0)
(-6.83571e-13 -1.67245e-11 0)
(3.3279e-12 -4.46777e-11 0)
(8.07732e-12 -6.82472e-11 0)
(1.54181e-11 -8.80336e-11 0)
(2.44882e-11 -1.04042e-10 0)
(3.51657e-11 -1.16894e-10 0)
(4.69053e-11 -1.27141e-10 0)
(6.01275e-11 -1.34463e-10 0)
(7.4475e-11 -1.39272e-10 0)
(8.91072e-11 -1.42177e-10 0)
(1.03898e-10 -1.43135e-10 0)
(1.18872e-10 -1.42233e-10 0)
(1.3377e-10 -1.39654e-10 0)
(1.4834e-10 -1.35571e-10 0)
(1.6245e-10 -1.30121e-10 0)
(1.75956e-10 -1.23412e-10 0)
(1.88711e-10 -1.15593e-10 0)
(2.00595e-10 -1.06784e-10 0)
(2.11521e-10 -9.71232e-11 0)
(2.21404e-10 -8.67235e-11 0)
(2.30158e-10 -7.5721e-11 0)
(2.37737e-10 -6.42334e-11 0)
(2.44083e-10 -5.23583e-11 0)
(2.49139e-10 -4.02103e-11 0)
(2.52884e-10 -2.78969e-11 0)
(2.55325e-10 -1.54937e-11 0)
(2.56487e-10 -3.12329e-12 0)
(2.56396e-10 9.09594e-12 0)
(2.55071e-10 2.10696e-11 0)
(2.52508e-10 3.26906e-11 0)
(2.48701e-10 4.38912e-11 0)
(2.43684e-10 5.46115e-11 0)
(2.37516e-10 6.47927e-11 0)
(2.30252e-10 7.43748e-11 0)
(2.21961e-10 8.33185e-11 0)
(2.12732e-10 9.15373e-11 0)
(2.02636e-10 9.90082e-11 0)
(1.91772e-10 1.0569e-10 0)
(1.80237e-10 1.11535e-10 0)
(1.68123e-10 1.16492e-10 0)
(1.55544e-10 1.20515e-10 0)
(1.42594e-10 1.23556e-10 0)
(1.2937e-10 1.25561e-10 0)
(1.15985e-10 1.2649e-10 0)
(1.02585e-10 1.26276e-10 0)
(8.92748e-11 1.24852e-10 0)
(7.62064e-11 1.22131e-10 0)
(6.36503e-11 1.1803e-10 0)
(5.16738e-11 1.12411e-10 0)
(4.05728e-11 1.05169e-10 0)
(3.02158e-11 9.60888e-11 0)
(2.08321e-11 8.48188e-11 0)
(1.38341e-11 7.13758e-11 0)
(6.64145e-12 5.53872e-11 0)
(1.68413e-12 3.56396e-11 0)
(2.38383e-13 1.35876e-11 0)
(-1.91004e-13 -1.73907e-11 0)
(2.98201e-12 -4.74582e-11 0)
(6.88188e-12 -7.31203e-11 0)
(1.2721e-11 -9.50901e-11 0)
(2.03244e-11 -1.13176e-10 0)
(2.94708e-11 -1.27615e-10 0)
(3.96029e-11 -1.38678e-10 0)
(5.09259e-11 -1.46797e-10 0)
(6.30583e-11 -1.52409e-10 0)
(7.54941e-11 -1.5573e-10 0)
(8.82013e-11 -1.56845e-10 0)
(1.01054e-10 -1.55918e-10 0)
(1.13827e-10 -1.53148e-10 0)
(1.2634e-10 -1.48713e-10 0)
(1.38463e-10 -1.42761e-10 0)
(1.50074e-10 -1.35442e-10 0)
(1.61061e-10 -1.26898e-10 0)
(1.7131e-10 -1.17262e-10 0)
(1.80731e-10 -1.06678e-10 0)
(1.89257e-10 -9.52898e-11 0)
(1.9682e-10 -8.32236e-11 0)
(2.03368e-10 -7.05975e-11 0)
(2.08849e-10 -5.75707e-11 0)
(2.13216e-10 -4.4241e-11 0)
(2.16463e-10 -3.07284e-11 0)
(2.18594e-10 -1.71378e-11 0)
(2.19619e-10 -3.59013e-12 0)
(2.19558e-10 9.8068e-12 0)
(2.18421e-10 2.29308e-11 0)
(2.16225e-10 3.56755e-11 0)
(2.12976e-10 4.79581e-11 0)
(2.08673e-10 5.97162e-11 0)
(2.0337e-10 7.08875e-11 0)
(1.97131e-10 8.14003e-11 0)
(1.90001e-10 9.11993e-11 0)
(1.82054e-10 1.00246e-10 0)
(1.73382e-10 1.08474e-10 0)
(1.64051e-10 1.15848e-10 0)
(1.54122e-10 1.22301e-10 0)
(1.43695e-10 1.27788e-10 0)
(1.32872e-10 1.32247e-10 0)
(1.21735e-10 1.35631e-10 0)
(1.10358e-10 1.37872e-10 0)
(9.8846e-11 1.38902e-10 0)
(8.73375e-11 1.38661e-10 0)
(7.59105e-11 1.37076e-10 0)
(6.46929e-11 1.34049e-10 0)
(5.40196e-11 1.29473e-10 0)
(4.38718e-11 1.23253e-10 0)
(3.41908e-11 1.15192e-10 0)
(2.57298e-11 1.05029e-10 0)
(1.82179e-11 9.28077e-11 0)
(1.06621e-11 7.79067e-11 0)
(5.69336e-12 5.97308e-11 0)
(2.28774e-12 3.90617e-11 0)
(1.57536e-14 1.46164e-11 0)
(-8.52249e-14 -1.88302e-11 0)
(2.37034e-12 -5.05279e-11 0)
(5.56603e-12 -7.82597e-11 0)
(1.01408e-11 -1.0171e-10 0)
(1.65458e-11 -1.20974e-10 0)
(2.42782e-11 -1.36371e-10 0)
(3.26278e-11 -1.48359e-10 0)
(4.18679e-11 -1.57351e-10 0)
(5.18721e-11 -1.636e-10 0)
(6.21692e-11 -1.67234e-10 0)
(7.27104e-11 -1.68502e-10 0)
(8.34349e-11 -1.6759e-10 0)
(9.40954e-11 -1.64679e-10 0)
(1.04525e-10 -1.59953e-10 0)
(1.14649e-10 -1.53584e-10 0)
(1.24358e-10 -1.45724e-10 0)
(1.33549e-10 -1.3654e-10 0)
(1.42127e-10 -1.26187e-10 0)
(1.5001e-10 -1.14817e-10 0)
(1.57149e-10 -1.02565e-10 0)
(1.63494e-10 -8.95911e-11 0)
(1.68976e-10 -7.60302e-11 0)
(1.7356e-10 -6.20194e-11 0)
(1.77228e-10 -4.76874e-11 0)
(1.79953e-10 -3.31601e-11 0)
(1.81739e-10 -1.85649e-11 0)
(1.82603e-10 -4.01739e-12 0)
(1.82559e-10 1.03648e-11 0)
(1.8161e-10 2.44701e-11 0)
(1.79766e-10 3.81981e-11 0)
(1.77038e-10 5.14356e-11 0)
(1.7345e-10 6.41015e-11 0)
(1.69026e-10 7.61388e-11 0)
(1.63801e-10 8.7471e-11 0)
(1.57849e-10 9.80393e-11 0)
(1.51224e-10 1.07791e-10 0)
(1.43974e-10 1.16669e-10 0)
(1.3617e-10 1.24598e-10 0)
(1.27875e-10 1.31537e-10 0)
(1.19161e-10 1.37431e-10 0)
(1.10118e-10 1.42221e-10 0)
(1.00812e-10 1.45841e-10 0)
(9.13016e-11 1.48227e-10 0)
(8.16884e-11 1.49309e-10 0)
(7.21031e-11 1.4902e-10 0)
(6.26004e-11 1.47276e-10 0)
(5.32915e-11 1.43977e-10 0)
(4.44501e-11 1.39018e-10 0)
(3.6057e-11 1.32229e-10 0)
(2.82485e-11 1.23439e-10 0)
(2.1148e-11 1.12533e-10 0)
(1.46406e-11 9.90007e-11 0)
(9.52039e-12 8.28533e-11 0)
(4.63056e-12 6.40375e-11 0)
(1.31525e-12 4.1028e-11 0)
(-2.0073e-14 1.54407e-11 0)
(-3.70301e-13 -1.98631e-11 0)
(1.90267e-12 -5.29673e-11 0)
(4.28125e-12 -8.21891e-11 0)
(7.95513e-12 -1.06742e-10 0)
(1.31134e-11 -1.27078e-10 0)
(1.92284e-11 -1.43482e-10 0)
(2.56908e-11 -1.56439e-10 0)
(3.29411e-11 -1.6617e-10 0)
(4.09102e-11 -1.72872e-10 0)
(4.91258e-11 -1.76817e-10 0)
(5.75267e-11 -1.78238e-10 0)
(6.60839e-11 -1.77314e-10 0)
(7.46099e-11 -1.74296e-10 0)
(8.29635e-11 -1.6934e-10 0)
(9.108e-11 -1.62631e-10 0)
(9.88683e-11 -1.54339e-10 0)
(1.0624e-10 -1.44639e-10 0)
(1.1312e-10 -1.33702e-10 0)
(1.19462e-10 -1.21682e-10 0)
(1.25202e-10 -1.08731e-10 0)
(1.30287e-10 -9.50041e-11 0)
(1.34695e-10 -8.06665e-11 0)
(1.38386e-10 -6.58376e-11 0)
(1.41322e-10 -5.06758e-11 0)
(1.435e-10 -3.53051e-11 0)
(1.44928e-10 -1.98516e-11 0)
(1.45619e-10 -4.43574e-12 0)
(1.45584e-10 1.0814e-11 0)
(1.44832e-10 2.57701e-11 0)
(1.43354e-10 4.03233e-11 0)
(1.41152e-10 5.43662e-11 0)
(1.38252e-10 6.78201e-11 0)
(1.34686e-10 8.05933e-11 0)
(1.30487e-10 9.26272e-11 0)
(1.25699e-10 1.03853e-10 0)
(1.20369e-10 1.14196e-10 0)
(1.14539e-10 1.23595e-10 0)
(1.08266e-10 1.31998e-10 0)
(1.01604e-10 1.39344e-10 0)
(9.46128e-11 1.45578e-10 0)
(8.73581e-11 1.50634e-10 0)
(7.98965e-11 1.54447e-10 0)
(7.22794e-11 1.56953e-10 0)
(6.45932e-11 1.58082e-10 0)
(5.69472e-11 1.57751e-10 0)
(4.93763e-11 1.55872e-10 0)
(4.1981e-11 1.52336e-10 0)
(3.50228e-11 1.47017e-10 0)
(2.84193e-11 1.39775e-10 0)
(2.21689e-11 1.30384e-10 0)
(1.66942e-11 1.18613e-10 0)
(1.18614e-11 1.04463e-10 0)
(7.14326e-12 8.73197e-11 0)
(3.64761e-12 6.66975e-11 0)
(1.40326e-12 4.33784e-11 0)
(-8.84601e-15 1.60527e-11 0)
(-4.09683e-13 -2.03541e-11 0)
(1.54411e-12 -5.46419e-11 0)
(3.23323e-12 -8.48295e-11 0)
(5.82209e-12 -1.10392e-10 0)
(9.63938e-12 -1.31693e-10 0)
(1.41862e-11 -1.48983e-10 0)
(1.88579e-11 -1.62631e-10 0)
(2.42529e-11 -1.72871e-10 0)
(3.02333e-11 -1.79938e-10 0)
(3.63257e-11 -1.84132e-10 0)
(4.2605e-11 -1.85686e-10 0)
(4.90266e-11 -1.84808e-10 0)
(5.54097e-11 -1.81706e-10 0)
(6.16813e-11 -1.76581e-10 0)
(6.77832e-11 -1.69617e-10 0)
(7.36467e-11 -1.61008e-10 0)
(7.9194e-11 -1.50914e-10 0)
(8.43744e-11 -1.39527e-10 0)
(8.91461e-11 -1.26997e-10 0)
(9.34744e-11 -1.13515e-10 0)
(9.73087e-11 -9.92107e-11 0)
(1.00623e-10 -8.42627e-11 0)
(1.03393e-10 -6.88104e-11 0)
(1.05599e-10 -5.30015e-11 0)
(1.07241e-10 -3.69594e-11 0)
(1.08323e-10 -2.08298e-11 0)
(1.0885e-10 -4.73019e-12 0)
(1.08813e-10 1.11903e-11 0)
(1.08216e-10 2.6807e-11 0)
(1.07069e-10 4.19905e-11 0)
(1.05387e-10 5.66492e-11 0)
(1.03183e-10 7.06832e-11 0)
(1.00475e-10 8.40216e-11 0)
(9.72899e-11 9.65828e-11 0)
(9.36615e-11 1.08298e-10 0)
(8.96216e-11 1.19101e-10 0)
(8.52127e-11 1.28914e-10 0)
(8.04784e-11 1.37688e-10 0)
(7.54553e-11 1.4536e-10 0)
(7.01858e-11 1.51863e-10 0)
(6.47232e-11 1.57133e-10 0)
(5.91164e-11 1.61106e-10 0)
(5.34013e-11 1.63714e-10 0)
(4.76444e-11 1.64879e-10 0)
(4.1944e-11 1.64512e-10 0)
(3.63105e-11 1.62516e-10 0)
(3.08186e-11 1.58788e-10 0)
(2.57032e-11 1.5318e-10 0)
(2.08445e-11 1.45522e-10 0)
(1.62893e-11 1.35681e-10 0)
(1.23882e-11 1.23426e-10 0)
(8.6512e-12 1.08385e-10 0)
(5.38689e-12 9.0492e-11 0)
(2.82783e-12 6.96747e-11 0)
(8.37078e-13 4.4497e-11 0)
(5.94653e-14 1.66743e-11 0)
(-4.14829e-13 -2.07138e-11 0)
(1.17931e-12 -5.58117e-11 0)
(2.14216e-12 -8.67333e-11 0)
(3.7067e-12 -1.13053e-10 0)
(6.24758e-12 -1.34982e-10 0)
(9.27664e-12 -1.52844e-10 0)
(1.22471e-11 -1.66931e-10 0)
(1.5778e-11 -1.77512e-10 0)
(1.97782e-11 -1.84881e-10 0)
(2.38189e-11 -1.89274e-10 0)
(2.7969e-11 -1.90931e-10 0)
(3.22327e-11 -1.90099e-10 0)
(3.65158e-11 -1.8695e-10 0)
(4.07153e-11 -1.81716e-10 0)
(4.48007e-11 -1.74582e-10 0)
(4.87366e-11 -1.65738e-10 0)
(5.24655e-11 -1.55373e-10 0)
(5.59462e-11 -1.43661e-10 0)
(5.91513e-11 -1.30781e-10 0)
(6.2054e-11 -1.16892e-10 0)
(6.46268e-11 -1.02187e-10 0)
(6.68466e-11 -8.67979e-11 0)
(6.87065e-11 -7.08993e-11 0)
(7.01875e-11 -5.46189e-11 0)
(7.12831e-11 -3.81042e-11 0)
(7.20016e-11 -2.14788e-11 0)
(7.23409e-11 -4.89687e-12 0)
(7.22904e-11 1.15016e-11 0)
(7.18592e-11 2.75666e-11 0)
(7.10519e-11 4.31863e-11 0)
(6.98736e-11 5.82713e-11 0)
(6.83458e-11 7.27263e-11 0)
(6.64899e-11 8.64638e-11 0)
(6.43152e-11 9.94064e-11 0)
(6.18492e-11 1.11471e-10 0)
(5.91032e-11 1.2259e-10 0)
(5.61101e-11 1.32702e-10 0)
(5.29118e-11 1.41737e-10 0)
(4.95206e-11 1.49628e-10 0)
(4.59678e-11 1.56312e-10 0)
(4.22992e-11 1.61723e-10 0)
(3.85479e-11 1.65798e-10 0)
(3.47309e-11 1.68462e-10 0)
(3.08962e-11 1.69638e-10 0)
(2.71365e-11 1.69226e-10 0)
(2.3422e-11 1.6713e-10 0)
(1.98219e-11 1.63234e-10 0)
(1.65228e-11 1.574e-10 0)
(1.34519e-11 1.4948e-10 0)
(1.05427e-11 1.39266e-10 0)
(7.98202e-12 1.26546e-10 0)
(5.80143e-12 1.11222e-10 0)
(3.77369e-12 9.28013e-11 0)
(1.62694e-12 7.08246e-11 0)
(4.61561e-13 4.58251e-11 0)
(-1.48315e-13 1.68629e-11 0)
(-3.80395e-13 -2.09387e-11 0)
(7.61538e-13 -5.64997e-11 0)
(1.12346e-12 -8.78927e-11 0)
(1.66506e-12 -1.14597e-10 0)
(2.9742e-12 -1.36892e-10 0)
(4.52688e-12 -1.55075e-10 0)
(5.82715e-12 -1.69445e-10 0)
(7.52207e-12 -1.80265e-10 0)
(9.55072e-12 -1.87818e-10 0)
(1.15459e-11 -1.92354e-10 0)
(1.36375e-11 -1.94098e-10 0)
(1.57318e-11 -1.93286e-10 0)
(1.79374e-11 -1.90131e-10 0)
(2.00733e-11 -1.84835e-10 0)
(2.2171e-11 -1.77606e-10 0)
(2.41939e-11 -1.68623e-10 0)
(2.61058e-11 -1.58092e-10 0)
(2.78898e-11 -1.46183e-10 0)
(2.95401e-11 -1.33086e-10 0)
(3.1026e-11 -1.18964e-10 0)
(3.23343e-11 -1.04002e-10 0)
(3.34644e-11 -8.83518e-11 0)
(3.44032e-11 -7.21788e-11 0)
(3.51559e-11 -5.56137e-11 0)
(3.57243e-11 -3.87963e-11 0)
(3.60969e-11 -2.1856e-11 0)
(3.62503e-11 -4.96775e-12 0)
(3.6166e-11 1.17246e-11 0)
(3.58573e-11 2.8074e-11 0)
(3.5372e-11 4.39668e-11 0)
(3.47176e-11 5.93107e-11 0)
(3.38838e-11 7.40242e-11 0)
(3.28767e-11 8.80095e-11 0)
(3.17015e-11 1.01181e-10 0)
(3.03725e-11 1.13466e-10 0)
(2.89147e-11 1.24772e-10 0)
(2.73388e-11 1.35062e-10 0)
(2.56562e-11 1.44243e-10 0)
(2.38841e-11 1.52257e-10 0)
(2.2041e-11 1.59039e-10 0)
(2.01556e-11 1.64526e-10 0)
(1.82457e-11 1.68644e-10 0)
(1.63147e-11 1.71325e-10 0)
(1.43764e-11 1.72481e-10 0)
(1.25694e-11 1.72025e-10 0)
(1.07351e-11 1.69856e-10 0)
(9.00303e-12 1.65845e-10 0)
(7.54268e-12 1.59855e-10 0)
(6.15554e-12 1.51716e-10 0)
(4.82272e-12 1.41297e-10 0)
(4.00451e-12 1.28399e-10 0)
(2.93369e-12 1.12559e-10 0)
(1.56071e-12 9.38552e-11 0)
(1.11052e-12 7.20396e-11 0)
(3.02591e-13 4.59941e-11 0)
(1.09601e-13 1.70498e-11 0)
(-3.70656e-13 -2.09726e-11 0)
(3.55288e-13 -5.66805e-11 0)
(9.96436e-14 -8.81855e-11 0)
(-2.77117e-13 -1.14989e-10 0)
(-1.92404e-13 -1.37409e-10 0)
(-9.66114e-14 -1.55718e-10 0)
(-4.50692e-13 -1.70208e-10 0)
(-5.64552e-13 -1.8115e-10 0)
(-4.7045e-13 -1.88802e-10 0)
(-4.96482e-13 -1.9341e-10 0)
(-5.05587e-13 -1.95194e-10 0)
(-4.18765e-13 -1.94408e-10 0)
(-3.02517e-13 -1.91276e-10 0)
(-2.01131e-13 -1.85967e-10 0)
(-8.45634e-14 -1.78705e-10 0)
(4.29144e-14 -1.69688e-10 0)
(1.60386e-13 -1.59098e-10 0)
(2.6694e-13 -1.47115e-10 0)
(3.63489e-13 -1.33925e-10 0)
(4.41743e-13 -1.19713e-10 0)
(4.98407e-13 -1.04637e-10 0)
(5.39443e-13 -8.88747e-11 0)
(5.821e-13 -7.25691e-11 0)
(6.32254e-13 -5.58723e-11 0)
(6.80808e-13 -3.89332e-11 0)
(6.93126e-13 -2.19095e-11 0)
(6.40493e-13 -4.94923e-12 0)
(5.24824e-13 1.18079e-11 0)
(3.66659e-13 2.82469e-11 0)
(2.03319e-13 4.42626e-11 0)
(4.7827e-14 5.97288e-11 0)
(-1.09876e-13 7.45482e-11 0)
(-2.80124e-13 8.86289e-11 0)
(-4.57132e-13 1.01889e-10 0)
(-6.48399e-13 1.14247e-10 0)
(-8.36454e-13 1.25638e-10 0)
(-1.01714e-12 1.35973e-10 0)
(-1.19769e-12 1.45201e-10 0)
(-1.36344e-12 1.53248e-10 0)
(-1.514e-12 1.60053e-10 0)
(-1.63604e-12 1.6555e-10 0)
(-1.7216e-12 1.69668e-10 0)
(-1.78887e-12 1.72334e-10 0)
(-1.82639e-12 1.73457e-10 0)
(-1.78835e-12 1.7296e-10 0)
(-1.70536e-12 1.70738e-10 0)
(-1.5968e-12 1.66657e-10 0)
(-1.32089e-12 1.60578e-10 0)
(-9.50734e-13 1.52352e-10 0)
(-5.86178e-13 1.41822e-10 0)
(-3.73309e-13 1.28746e-10 0)
(9.17523e-15 1.12988e-10 0)
(5.89292e-13 9.42163e-11 0)
(-2.13e-13 7.18079e-11 0)
(-4.44654e-13 4.62534e-11 0)
(-1.20652e-13 1.69592e-11 0)
(-3.69108e-13 -2.08749e-11 0)
(1.58753e-14 -5.63005e-11 0)
(-8.02991e-13 -8.76374e-11 0)
(-2.1659e-12 -1.14281e-10 0)
(-3.28952e-12 -1.36579e-10 0)
(-4.61884e-12 -1.54814e-10 0)
(-6.59871e-12 -1.69251e-10 0)
(-8.4966e-12 -1.80171e-10 0)
(-1.0299e-11 -1.87818e-10 0)
(-1.23e-11 -1.92429e-10 0)
(-1.43716e-11 -1.9424e-10 0)
(-1.62609e-11 -1.9348e-10 0)
(-1.82173e-11 -1.90369e-10 0)
(-2.01135e-11 -1.85107e-10 0)
(-2.19489e-11 -1.7789e-10 0)
(-2.36919e-11 -1.68921e-10 0)
(-2.53363e-11 -1.58379e-10 0)
(-2.68763e-11 -1.46447e-10 0)
(-2.83035e-11 -1.33306e-10 0)
(-2.96062e-11 -1.19137e-10 0)
(-3.07768e-11 -1.04096e-10 0)
(-3.1794e-11 -8.83509e-11 0)
(-3.26406e-11 -7.20674e-11 0)
(-3.33178e-11 -5.54235e-11 0)
(-3.38342e-11 -3.85663e-11 0)
(-3.42086e-11 -2.16712e-11 0)
(-3.44582e-11 -4.84466e-12 0)
(-3.45845e-11 1.17943e-11 0)
(-3.45583e-11 2.81464e-11 0)
(-3.43651e-11 4.40858e-11 0)
(-3.40136e-11 5.95068e-11 0)
(-3.35061e-11 7.42797e-11 0)
(-3.28489e-11 8.83173e-11 0)
(-3.20542e-11 1.01528e-10 0)
(-3.11192e-11 1.1383e-10 0)
(-3.00562e-11 1.2516e-10 0)
(-2.88696e-11 1.35437e-10 0)
(-2.75606e-11 1.44604e-10 0)
(-2.61461e-11 1.52595e-10 0)
(-2.46272e-11 1.59341e-10 0)
(-2.30076e-11 1.64788e-10 0)
(-2.12975e-11 1.6886e-10 0)
(-1.95298e-11 1.71478e-10 0)
(-1.76924e-11 1.72562e-10 0)
(-1.58428e-11 1.72029e-10 0)
(-1.38963e-11 1.69766e-10 0)
(-1.19863e-11 1.65662e-10 0)
(-9.92846e-12 1.59571e-10 0)
(-7.94448e-12 1.5134e-10 0)
(-6.15471e-12 1.4084e-10 0)
(-4.08531e-12 1.27855e-10 0)
(-2.59115e-12 1.12054e-10 0)
(-2.04058e-12 9.33593e-11 0)
(-4.81404e-13 7.14067e-11 0)
(-1.89126e-13 4.55886e-11 0)
(1.4624e-13 1.68227e-11 0)
(-4.78291e-13 -2.04979e-11 0)
(-2.66246e-13 -5.54911e-11 0)
(-1.79618e-12 -8.62914e-11 0)
(-4.00358e-12 -1.12483e-10 0)
(-6.31622e-12 -1.34443e-10 0)
(-9.05645e-12 -1.52394e-10 0)
(-1.26315e-11 -1.66605e-10 0)
(-1.62781e-11 -1.77361e-10 0)
(-1.99358e-11 -1.84894e-10 0)
(-2.38741e-11 -1.89441e-10 0)
(-2.79062e-11 -1.91245e-10 0)
(-3.18588e-11 -1.90507e-10 0)
(-3.58004e-11 -1.87439e-10 0)
(-3.96699e-11 -1.82261e-10 0)
(-4.3413e-11 -1.7516e-10 0)
(-4.69862e-11 -1.66322e-10 0)
(-5.03622e-11 -1.55935e-10 0)
(-5.35215e-11 -1.4418e-10 0)
(-5.64399e-11 -1.31236e-10 0)
(-5.90861e-11 -1.17265e-10 0)
(-6.14391e-11 -1.02443e-10 0)
(-6.34929e-11 -8.69251e-11 0)
(-6.5237e-11 -7.08837e-11 0)
(-6.66479e-11 -5.44774e-11 0)
(-6.77362e-11 -3.78789e-11 0)
(-6.85043e-11 -2.12237e-11 0)
(-6.8937e-11 -4.64795e-12 0)
(-6.90406e-11 1.1756e-11 0)
(-6.88205e-11 2.78753e-11 0)
(-6.82677e-11 4.35912e-11 0)
(-6.73971e-11 5.87769e-11 0)
(-6.62265e-11 7.33293e-11 0)
(-6.47558e-11 8.71391e-11 0)
(-6.30019e-11 1.00142e-10 0)
(-6.09726e-11 1.12248e-10 0)
(-5.86784e-11 1.23384e-10 0)
(-5.61381e-11 1.33486e-10 0)
(-5.33722e-11 1.42486e-10 0)
(-5.04031e-11 1.50319e-10 0)
(-4.72427e-11 1.56937e-10 0)
(-4.39107e-11 1.62259e-10 0)
(-4.04431e-11 1.66232e-10 0)
(-3.68805e-11 1.6877e-10 0)
(-3.32386e-11 1.69804e-10 0)
(-2.95272e-11 1.69232e-10 0)
(-2.57944e-11 1.66964e-10 0)
(-2.21161e-11 1.62881e-10 0)
(-1.84069e-11 1.56856e-10 0)
(-1.4732e-11 1.48742e-10 0)
(-1.12686e-11 1.38362e-10 0)
(-8.39524e-12 1.25523e-10 0)
(-5.52349e-12 1.10133e-10 0)
(-2.47817e-12 9.15559e-11 0)
(-1.88006e-12 6.97558e-11 0)
(-1.28648e-12 4.49568e-11 0)
(-3.77166e-14 1.65048e-11 0)
(-3.36323e-13 -1.9979e-11 0)
(-6.02751e-13 -5.41339e-11 0)
(-2.63034e-12 -8.41515e-11 0)
(-5.82909e-12 -1.09648e-10 0)
(-9.32731e-12 -1.31017e-10 0)
(-1.34221e-11 -1.48474e-10 0)
(-1.85647e-11 -1.62294e-10 0)
(-2.39312e-11 -1.72754e-10 0)
(-2.94098e-11 -1.80077e-10 0)
(-3.52547e-11 -1.84502e-10 0)
(-4.12336e-11 -1.8625e-10 0)
(-4.71661e-11 -1.85527e-10 0)
(-5.30604e-11 -1.82537e-10 0)
(-5.88612e-11 -1.77486e-10 0)
(-6.44736e-11 -1.70561e-10 0)
(-6.98342e-11 -1.61945e-10 0)
(-7.4908e-11 -1.51818e-10 0)
(-7.96544e-11 -1.40361e-10 0)
(-8.40251e-11 -1.2774e-10 0)
(-8.79917e-11 -1.14125e-10 0)
(-9.15265e-11 -9.96804e-11 0)
(-9.45969e-11 -8.45745e-11 0)
(-9.71864e-11 -6.89519e-11 0)
(-9.92958e-11 -5.29773e-11 0)
(-1.00915e-10 -3.67968e-11 0)
(-1.02035e-10 -2.05408e-11 0)
(-1.02642e-10 -4.33472e-12 0)
(-1.0273e-10 1.16859e-11 0)
(-1.02315e-10 2.74084e-11 0)
(-1.01418e-10 4.27118e-11 0)
(-1.00056e-10 5.74925e-11 0)
(-9.8241e-11 7.16478e-11 0)
(-9.5967e-11 8.50936e-11 0)
(-9.32547e-11 9.77371e-11 0)
(-9.01404e-11 1.09511e-10 0)
(-8.66387e-11 1.2033e-10 0)
(-8.27752e-11 1.3014e-10 0)
(-7.85817e-11 1.38869e-10 0)
(-7.4082e-11 1.46466e-10 0)
(-6.9316e-11 1.52866e-10 0)
(-6.43182e-11 1.58007e-10 0)
(-5.91244e-11 1.61823e-10 0)
(-5.38044e-11 1.64254e-10 0)
(-4.83918e-11 1.65215e-10 0)
(-4.28907e-11 1.64618e-10 0)
(-3.74023e-11 1.62373e-10 0)
(-3.20093e-11 1.58373e-10 0)
(-2.65796e-11 1.52486e-10 0)
(-2.13976e-11 1.44556e-10 0)
(-1.66402e-11 1.34446e-10 0)
(-1.17681e-11 1.21973e-10 0)
(-7.8343e-12 1.06798e-10 0)
(-5.3701e-12 8.88359e-11 0)
(-2.04354e-12 6.80534e-11 0)
(-8.19313e-13 4.34901e-11 0)
(2.56634e-13 1.61186e-11 0)
(-4.37504e-13 -1.9346e-11 0)
(-8.79384e-13 -5.21751e-11 0)
(-3.59452e-12 -8.12022e-11 0)
(-7.61937e-12 -1.05744e-10 0)
(-1.22699e-11 -1.26265e-10 0)
(-1.77356e-11 -1.43056e-10 0)
(-2.44279e-11 -1.56327e-10 0)
(-3.14838e-11 -1.66362e-10 0)
(-3.87543e-11 -1.73388e-10 0)
(-4.64632e-11 -1.77626e-10 0)
(-5.43497e-11 -1.79286e-10 0)
(-6.22116e-11 -1.78576e-10 0)
(-7.00212e-11 -1.75688e-10 0)
(-7.76994e-11 -1.70815e-10 0)
(-8.51335e-11 -1.64132e-10 0)
(-9.22407e-11 -1.55823e-10 0)
(-9.89667e-11 -1.4606e-10 0)
(-1.05253e-10 -1.35016e-10 0)
(-1.11045e-10 -1.2285e-10 0)
(-1.16295e-10 -1.09735e-10 0)
(-1.20966e-10 -9.58133e-11 0)
(-1.25027e-10 -8.12529e-11 0)
(-1.28459e-10 -6.61938e-11 0)
(-1.3124e-10 -5.08053e-11 0)
(-1.33351e-10 -3.52023e-11 0)
(-1.34782e-10 -1.95428e-11 0)
(-1.35534e-10 -3.92579e-12 0)
(-1.35617e-10 1.15005e-11 0)
(-1.3504e-10 2.66417e-11 0)
(-1.33807e-10 4.13634e-11 0)
(-1.31938e-10 5.55962e-11 0)
(-1.29459e-10 6.92142e-11 0)
(-1.26387e-10 8.21623e-11 0)
(-1.22748e-10 9.43104e-11 0)
(-1.18574e-10 1.05625e-10 0)
(-1.13888e-10 1.16004e-10 0)
(-1.08725e-10 1.25419e-10 0)
(-1.03131e-10 1.33774e-10 0)
(-9.71448e-11 1.41049e-10 0)
(-9.08161e-11 1.4715e-10 0)
(-8.41879e-11 1.52059e-10 0)
(-7.73168e-11 1.55677e-10 0)
(-7.0282e-11 1.57973e-10 0)
(-6.31399e-11 1.5884e-10 0)
(-5.59073e-11 1.58237e-10 0)
(-4.86977e-11 1.56039e-10 0)
(-4.16188e-11 1.52173e-10 0)
(-3.46439e-11 1.46477e-10 0)
(-2.78491e-11 1.38861e-10 0)
(-2.14393e-11 1.29112e-10 0)
(-1.5982e-11 1.17067e-10 0)
(-1.07162e-11 1.02606e-10 0)
(-5.45052e-12 8.53333e-11 0)
(-3.63144e-12 6.50341e-11 0)
(-2.02776e-12 4.19457e-11 0)
(-1.49252e-13 1.54273e-11 0)
(-3.12617e-13 -1.84839e-11 0)
(-1.28712e-12 -4.98132e-11 0)
(-4.39604e-12 -7.7414e-11 0)
(-9.36605e-12 -1.00766e-10 0)
(-1.52222e-11 -1.20257e-10 0)
(-2.20478e-11 -1.36191e-10 0)
(-3.02464e-11 -1.48761e-10 0)
(-3.89682e-11 -1.58251e-10 0)
(-4.79964e-11 -1.64897e-10 0)
(-5.75283e-11 -1.68889e-10 0)
(-6.72814e-11 -1.70444e-10 0)
(-7.70234e-11 -1.69737e-10 0)