/*--------------------------------*- C++ -*----------------------------------*\
| =========                 |                                                 |
| \\      /  F ield         | OpenFOAM: The Open Source CFD Toolbox           |
|  \\    /   O peration     | Version:  5.0                                   |
|   \\  /    A nd           | Web:      www.OpenFOAM.org                      |
|    \\/     M anipulation  |                                                 |
\*---------------------------------------------------------------------------*/
FoamFile
{
    version     2.0;
    format      ascii;
    class       volScalarField;
    location    "0.3";
    object      p;
}
// * * * * * * * * * * * * * * * * * * * * * * * * * * * * * * * * * * * * * //

dimensions      [0 2 -2 0 0 0 0];

internalField   nonuniform List<scalar> 
50
(
4.64057e-11
-2.11264e-09
-2.1663e-09
-4.68522e-09
-4.53899e-09
4.76144e-11
-2.11397e-09
-2.16458e-09
-4.68015e-09
-4.53717e-09
5.06978e-11
-2.11732e-09
-2.16069e-09
-4.68804e-09
-4.55376e-09
5.30774e-11
-2.11985e-09
-2.15794e-09
-4.70255e-09
-4.57431e-09
5.41831e-11
-2.12095e-09
-2.1569e-09
-4.7124e-09
-4.58636e-09
5.41748e-11
-2.12078e-09
-2.15723e-09
-4.71237e-09
-4.58569e-09
5.3054e-11
-2.11939e-09
-2.1589e-09
-4.70264e-09
-4.5725e-09
5.06637e-11
-2.11663e-09
-2.16216e-09
-4.68892e-09
-4.55165e-09
4.75739e-11
-2.11317e-09
-2.16643e-09
-4.68271e-09
-4.53591e-09
4.63588e-11
-2.11181e-09
-2.16839e-09
-4.6901e-09
-4.53949e-09
)
;

boundaryField
{
    top
    {
        type            zeroGradient;
    }
    bottom
    {
        type            zeroGradient;
    }
    inlet
    {
        type            fixedValue;
        value           nonuniform 0();
    }
    outlet
    {
        type            fixedValue;
        value           uniform 0;
    }
    frontAndBack
    {
        type            empty;
    }
    procBoundary1to0
    {
        type            processor;
        value           nonuniform List<scalar> 10(2.8947e-10 2.88119e-10 2.84818e-10 2.82141e-10 2.8069e-10 2.80327e-10 2.81107e-10 2.83219e-10 2.86127e-10 2.87243e-10);
    }
}


// ************************************************************************* //
