/*--------------------------------*- C++ -*----------------------------------*\
| =========                 |                                                 |
| \\      /  F ield         | OpenFOAM: The Open Source CFD Toolbox           |
|  \\    /   O peration     | Version:  5.0                                   |
|   \\  /    A nd           | Web:      www.OpenFOAM.org                      |
|    \\/     M anipulation  |                                                 |
\*---------------------------------------------------------------------------*/
FoamFile
{
    version     2.0;
    format      ascii;
    class       surfaceScalarField;
    location    "0.3";
    object      phi;
}
// * * * * * * * * * * * * * * * * * * * * * * * * * * * * * * * * * * * * * //

dimensions      [0 3 -1 0 0 0 0];

internalField   nonuniform List<scalar> 
85
(
4.99996e-07
-4.05169e-16
4.99996e-07
4.44278e-16
4.99996e-07
-5.06156e-16
4.99996e-07
1.40327e-15
2.71914e-15
1.49999e-06
-7.09735e-16
1.49999e-06
7.76355e-16
1.49999e-06
-8.69481e-16
1.49999e-06
3.02755e-15
5.32e-15
2.49998e-06
-6.73314e-16
2.49998e-06
7.33261e-16
2.49998e-06
-8.1012e-16
2.49998e-06
3.36865e-15
5.5309e-15
3.49998e-06
-3.98522e-16
3.49998e-06
4.27751e-16
3.49998e-06
-4.76294e-16
3.49998e-06
1.98162e-15
3.25917e-15
4.49998e-06
-4.7439e-19
4.49998e-06
-1.20923e-17
4.49998e-06
-9.34485e-18
4.49998e-06
-4.80751e-16
-4.69018e-16
5.49998e-06
3.97621e-16
5.49998e-06
-4.49639e-16
5.49998e-06
4.60341e-16
5.49998e-06
-2.85819e-15
-4.11498e-15
6.49998e-06
6.72885e-16
6.49998e-06
-7.48727e-16
6.49998e-06
7.98897e-16
6.49998e-06
-4.00833e-15
-6.15387e-15
7.49998e-06
7.09668e-16
7.49998e-06
-7.84188e-16
7.49998e-06
8.64696e-16
7.49998e-06
-3.37491e-15
-5.65762e-15
8.49999e-06
4.05312e-16
8.49999e-06
-4.46178e-16
8.49999e-06
5.05124e-16
8.49999e-06
-1.50213e-15
-2.81421e-15
9.5e-06
9.5e-06
9.5e-06
9.5e-06
)
;

boundaryField
{
    top
    {
        type            calculated;
        value           uniform 0;
    }
    bottom
    {
        type            calculated;
        value           uniform 0;
    }
    inlet
    {
        type            calculated;
        value           nonuniform 0();
    }
    outlet
    {
        type            calculated;
        value           nonuniform List<scalar> 10(4.99996e-07 1.49999e-06 2.49998e-06 3.49998e-06 4.49998e-06 5.49998e-06 6.49998e-06 7.49998e-06 8.49999e-06 9.5e-06);
    }
    frontAndBack
    {
        type            empty;
        value           nonuniform 0();
    }
    procBoundary1to0
    {
        type            processor;
        value           nonuniform List<scalar> 10(-4.99996e-07 -1.49999e-06 -2.49998e-06 -3.49998e-06 -4.49998e-06 -5.49998e-06 -6.49998e-06 -7.49998e-06 -8.49999e-06 -9.5e-06);
    }
}


// ************************************************************************* //
