/*--------------------------------*- C++ -*----------------------------------*\
| =========                 |                                                 |
| \\      /  F ield         | OpenFOAM: The Open Source CFD Toolbox           |
|  \\    /   O peration     | Version:  5.0                                   |
|   \\  /    A nd           | Web:      www.OpenFOAM.org                      |
|    \\/     M anipulation  |                                                 |
\*---------------------------------------------------------------------------*/
FoamFile
{
    version     2.0;
    format      ascii;
    class       surfaceScalarField;
    location    "1.9";
    object      phi;
}
// * * * * * * * * * * * * * * * * * * * * * * * * * * * * * * * * * * * * * //

dimensions      [0 3 -1 0 0 0 0];

internalField   nonuniform List<scalar> 
85
(
0.000100749
-7.42086e-20
0.000100749
-4.31987e-20
0.000100749
-1.23977e-20
0.000100749
-7.82592e-20
-6.48645e-20
0.000100749
-4.29863e-20
0.000100749
-1.34249e-19
0.000100749
4.59003e-21
0.000100749
-8.95095e-20
-9.77361e-20
0.000100749
-5.58899e-20
0.000100749
-2.74716e-19
0.000100749
3.64625e-20
0.000100749
-2.31354e-21
9.45626e-20
0.000100749
3.92194e-20
0.000100749
-1.44093e-19
0.000100749
2.48447e-21
0.000100749
2.32412e-19
2.52918e-19
0.000100749
1.67019e-19
0.000100749
-3.12587e-19
0.000100749
2.38418e-20
0.000100749
1.89215e-19
1.15482e-19
0.000100749
1.63499e-19
0.000100749
-4.02938e-19
0.000100749
-2.13039e-19
0.000100749
1.78292e-19
2.56632e-19
0.000100749
1.51903e-19
0.000100749
-5.35169e-19
0.000100749
-2.84147e-19
0.000100749
2.01238e-19
2.9128e-19
0.000100749
1.87832e-19
0.000100749
-5.716e-19
0.000100749
-3.56734e-19
0.000100749
3.83867e-19
1.37352e-19
0.000100749
1.106e-19
0.000100749
-7.51952e-19
0.000100749
-3.84708e-19
0.000100749
1.66696e-19
2.00203e-19
0.000100749
0.000100749
0.000100749
0.000100749
)
;

boundaryField
{
    top
    {
        type            calculated;
        value           nonuniform List<scalar> 5(1.00589e-19 -4.43824e-19 -3.64023e-19 4.12298e-19 3.34318e-19);
    }
    bottom
    {
        type            symmetryPlane;
        value           uniform 0;
    }
    inlet
    {
        type            calculated;
        value           nonuniform 0();
    }
    outlet
    {
        type            calculated;
        value           nonuniform List<scalar> 10(0.000100749 0.000100749 0.000100749 0.000100749 0.000100749 0.000100749 0.000100749 0.000100749 0.000100749 0.000100749);
    }
    frontAndBack
    {
        type            empty;
        value           nonuniform 0();
    }
    procBoundary1to0
    {
        type            processor;
        value           nonuniform List<scalar> 10(-0.000100749 -0.000100749 -0.000100749 -0.000100749 -0.000100749 -0.000100749 -0.000100749 -0.000100749 -0.000100749 -0.000100749);
    }
}


// ************************************************************************* //
