/*--------------------------------*- C++ -*----------------------------------*\
| =========                 |                                                 |
| \\      /  F ield         | OpenFOAM: The Open Source CFD Toolbox           |
|  \\    /   O peration     | Version:  5.0                                   |
|   \\  /    A nd           | Web:      www.OpenFOAM.org                      |
|    \\/     M anipulation  |                                                 |
\*---------------------------------------------------------------------------*/
FoamFile
{
    version     2.0;
    format      ascii;
    class       volScalarField;
    location    "0.1";
    object      p;
}
// * * * * * * * * * * * * * * * * * * * * * * * * * * * * * * * * * * * * * //

dimensions      [0 2 -2 0 0 0 0];

internalField   nonuniform List<scalar> 
50
(
-1.80677e-07
-1.48248e-07
3.98847e-09
-1.97802e-07
-1.27946e-07
-1.78851e-07
-1.44647e-07
4.78799e-09
-1.96401e-07
-1.26295e-07
-1.78239e-07
-1.42148e-07
6.01748e-09
-1.95731e-07
-1.25247e-07
-1.78424e-07
-1.41027e-07
7.12446e-09
-1.95471e-07
-1.24569e-07
-1.78872e-07
-1.40477e-07
8.09526e-09
-1.95125e-07
-1.23883e-07
-1.79537e-07
-1.40462e-07
8.78452e-09
-1.94631e-07
-1.23074e-07
-1.80393e-07
-1.40802e-07
9.24315e-09
-1.93884e-07
-1.22161e-07
-1.81452e-07
-1.41571e-07
9.29089e-09
-1.92976e-07
-1.21278e-07
-1.83309e-07
-1.43152e-07
8.9461e-09
-1.92306e-07
-1.2075e-07
-1.86337e-07
-1.4546e-07
8.83998e-09
-1.92138e-07
-1.20753e-07
)
;

boundaryField
{
    top
    {
        type            zeroGradient;
    }
    bottom
    {
        type            zeroGradient;
    }
    inlet
    {
        type            fixedValue;
        value           nonuniform 0();
    }
    outlet
    {
        type            fixedValue;
        value           uniform 0;
    }
    frontAndBack
    {
        type            empty;
    }
    procBoundary1to0
    {
        type            processor;
        value           nonuniform List<scalar> 10(2.56428e-07 2.52967e-07 2.50672e-07 2.49183e-07 2.47836e-07 2.46655e-07 2.45652e-07 2.44931e-07 2.44963e-07 2.46308e-07);
    }
}


// ************************************************************************* //
