/*--------------------------------*- C++ -*----------------------------------*\
| =========                 |                                                 |
| \\      /  F ield         | OpenFOAM: The Open Source CFD Toolbox           |
|  \\    /   O peration     | Version:  5.0                                   |
|   \\  /    A nd           | Web:      www.OpenFOAM.org                      |
|    \\/     M anipulation  |                                                 |
\*---------------------------------------------------------------------------*/
FoamFile
{
    version     2.0;
    format      ascii;
    class       surfaceScalarField;
    location    "0.1";
    object      phi;
}
// * * * * * * * * * * * * * * * * * * * * * * * * * * * * * * * * * * * * * //

dimensions      [0 3 -1 0 0 0 0];

internalField   nonuniform List<scalar> 
85
(
4.98857e-07
1.62182e-13
4.98857e-07
1.54667e-13
4.98857e-07
-5.98091e-14
4.98857e-07
1.24465e-13
1.07193e-13
1.49669e-06
3.25483e-13
1.49668e-06
4.08524e-13
1.49669e-06
-9.02504e-14
1.49668e-06
2.98636e-13
2.68831e-13
2.49484e-06
3.24045e-13
2.49484e-06
5.81731e-13
2.49484e-06
-5.68992e-14
2.49484e-06
4.05642e-13
3.73117e-13
3.49349e-06
1.24966e-13
3.49349e-06
5.41092e-13
3.49349e-06
-7.69585e-15
3.49349e-06
3.97042e-13
3.72702e-13
4.49279e-06
-1.85829e-13
4.49279e-06
3.15655e-13
4.49279e-06
3.78758e-14
4.49279e-06
2.76032e-13
2.67538e-13
5.49278e-06
-4.62894e-13
5.49278e-06
3.04879e-14
5.49278e-06
7.61884e-14
5.49278e-06
1.06046e-13
1.16227e-13
6.49349e-06
-5.70551e-13
6.49349e-06
-1.61336e-13
6.49349e-06
1.06538e-13
6.49349e-06
-4.04392e-14
-1.55584e-14
7.49483e-06
-4.59354e-13
7.49483e-06
-1.81996e-13
7.49483e-06
1.16622e-13
7.49483e-06
-9.98142e-14
-7.08597e-14
8.49668e-06
-2.01524e-13
8.49668e-06
-8.65364e-14
8.49668e-06
6.715e-14
8.49668e-06
-6.77513e-14
-4.8747e-14
9.49886e-06
9.49886e-06
9.49886e-06
9.49886e-06
)
;

boundaryField
{
    top
    {
        type            calculated;
        value           uniform 0;
    }
    bottom
    {
        type            calculated;
        value           uniform 0;
    }
    inlet
    {
        type            calculated;
        value           nonuniform 0();
    }
    outlet
    {
        type            calculated;
        value           nonuniform List<scalar> 10(4.98857e-07 1.49668e-06 2.49484e-06 3.49349e-06 4.49279e-06 5.49278e-06 6.49349e-06 7.49483e-06 8.49668e-06 9.49886e-06);
    }
    frontAndBack
    {
        type            empty;
        value           nonuniform 0();
    }
    procBoundary1to0
    {
        type            processor;
        value           nonuniform List<scalar> 10(-4.98857e-07 -1.49669e-06 -2.49484e-06 -3.49349e-06 -4.49278e-06 -5.49278e-06 -6.49349e-06 -7.49483e-06 -8.49668e-06 -9.49886e-06);
    }
}


// ************************************************************************* //
