/*--------------------------------*- C++ -*----------------------------------*\
| =========                 |                                                 |
| \\      /  F ield         | OpenFOAM: The Open Source CFD Toolbox           |
|  \\    /   O peration     | Version:  5.0                                   |
|   \\  /    A nd           | Web:      www.OpenFOAM.org                      |
|    \\/     M anipulation  |                                                 |
\*---------------------------------------------------------------------------*/
FoamFile
{
    version     2.0;
    format      ascii;
    class       volScalarField;
    location    "310";
    object      p;
}
// * * * * * * * * * * * * * * * * * * * * * * * * * * * * * * * * * * * * * //

dimensions      [0 2 -2 0 0 0 0];

internalField   nonuniform List<scalar> 
1568
(
8.861e-16
2.97995e-15
4.53488e-15
5.21428e-15
5.94654e-15
6.67854e-15
7.14554e-15
7.61449e-15
8.0649e-15
8.46355e-15
8.83976e-15
9.2122e-15
9.58079e-15
9.94105e-15
1.03021e-14
1.06697e-14
1.10415e-14
1.14212e-14
1.18075e-14
1.22047e-14
1.26079e-14
1.30222e-14
1.34256e-14
1.37311e-14
1.39614e-14
1.42679e-14
1.47561e-14
1.54682e-14
1.62661e-14
1.69784e-14
1.74674e-14
1.77796e-14
1.80093e-14
1.83162e-14
1.87178e-14
1.91347e-14
1.95319e-14
1.99334e-14
2.03178e-14
2.06974e-14
2.10663e-14
2.14353e-14
2.17927e-14
2.21561e-14
2.2518e-14
2.28893e-14
2.32687e-14
2.36718e-14
2.40972e-14
2.45588e-14
2.50825e-14
2.56896e-14
2.63876e-14
2.71862e-14
2.85043e-14
2.99641e-14
2.29361e-15
1.93279e-15
6.85633e-15
5.98157e-15
5.30746e-15
7.4571e-15
7.60058e-15
7.84002e-15
8.49733e-15
8.92552e-15
9.23388e-15
9.59025e-15
9.97213e-15
1.03098e-14
1.0673e-14
1.10343e-14
1.13859e-14
1.17536e-14
1.21232e-14
1.25018e-14
1.28744e-14
1.32747e-14
1.36689e-14
1.41273e-14
1.4555e-14
1.50013e-14
1.54107e-14
1.57708e-14
1.59561e-14
1.63685e-14
1.67728e-14
1.72028e-14
1.75719e-14
1.80596e-14
1.84422e-14
1.8882e-14
1.921e-14
1.96312e-14
1.99671e-14
2.03361e-14
2.0692e-14
2.10941e-14
2.142e-14
2.17792e-14
2.21189e-14
2.2504e-14
2.28769e-14
2.32914e-14
2.36937e-14
2.42072e-14
2.48006e-14
2.53398e-14
2.61035e-14
2.65498e-14
2.83879e-14
2.9244e-14
3.54236e-15
5.32746e-15
3.306e-15
5.90526e-15
6.97783e-15
7.53139e-15
7.64805e-15
8.39493e-15
8.8472e-15
8.98017e-15
9.55534e-15
1.00166e-14
1.02488e-14
1.05968e-14
1.09678e-14
1.1253e-14
1.15985e-14
1.19417e-14
1.22977e-14
1.2627e-14
1.29874e-14
1.33512e-14
1.37547e-14
1.4114e-14
1.4494e-14
1.47959e-14
1.51947e-14
1.56305e-14
1.61079e-14
1.64926e-14
1.68901e-14
1.72706e-14
1.77558e-14
1.8111e-14
1.84644e-14
1.87868e-14
1.91935e-14
1.94824e-14
1.98452e-14
2.01931e-14
2.0474e-14
2.07107e-14
2.11011e-14
2.14269e-14
2.17976e-14
2.21557e-14
2.2535e-14
2.29362e-14
2.33876e-14
2.38561e-14
2.42866e-14
2.46366e-14
2.60612e-14
2.63477e-14
2.73684e-14
2.83101e-14
4.30792e-15
5.50781e-15
7.07157e-15
6.75773e-15
7.88253e-15
8.30692e-15
8.46177e-15
9.1618e-15
9.72305e-15
1.00371e-14
1.03333e-14
1.06355e-14
1.09913e-14
1.13663e-14
1.16335e-14
1.1974e-14
1.22969e-14
1.25856e-14
1.2863e-14
1.32131e-14
1.35143e-14
1.3817e-14
1.40937e-14
1.4408e-14
1.46855e-14
1.50139e-14
1.53391e-14
1.57113e-14
1.60654e-14
1.64467e-14
1.67704e-14
1.70077e-14
1.72279e-14
1.75057e-14
1.78438e-14
1.81539e-14
1.84695e-14
1.88042e-14
1.90903e-14
1.94218e-14
1.9781e-14
2.01588e-14
2.04627e-14
2.0774e-14
2.11011e-14
2.14438e-14
2.17699e-14
2.22021e-14
2.2627e-14
2.29863e-14
2.37317e-14
2.43568e-14
2.46585e-14
2.50195e-14
2.69044e-14
2.74387e-14
5.22108e-15
5.19219e-15
6.99679e-15
7.26928e-15
8.09053e-15
8.48341e-15
8.96997e-15
9.52077e-15
9.82156e-15
1.01942e-14
1.05628e-14
1.09027e-14
1.12131e-14
1.14889e-14
1.17725e-14
1.20821e-14
1.23705e-14
1.26725e-14
1.29725e-14
1.32666e-14
1.35554e-14
1.38555e-14
1.41624e-14
1.44791e-14
1.47738e-14
1.50916e-14
1.54042e-14
1.57035e-14
1.60051e-14
1.63253e-14
1.66562e-14
1.699e-14
1.73021e-14
1.76118e-14
1.79393e-14
1.82376e-14
1.8506e-14
1.88071e-14
1.90967e-14
1.93708e-14
1.96382e-14
1.99157e-14
2.0194e-14
2.05027e-14
2.08128e-14
2.11498e-14
2.15172e-14
2.1859e-14
2.22078e-14
2.27895e-14
2.32217e-14
2.32676e-14
2.45088e-14
2.52741e-14
2.56455e-14
2.64318e-14
6.35319e-15
7.07153e-15
7.84001e-15
8.42094e-15
8.71211e-15
9.06318e-15
9.74166e-15
1.0171e-14
1.03565e-14
1.07215e-14
1.11001e-14
1.14009e-14
1.16713e-14
1.19651e-14
1.22623e-14
1.25107e-14
1.27554e-14
1.30179e-14
1.32873e-14
1.35319e-14
1.37947e-14
1.40744e-14
1.43466e-14
1.46131e-14
1.48876e-14
1.51507e-14
1.5435e-14
1.57296e-14
1.6017e-14
1.62987e-14
1.65701e-14
1.68451e-14
1.71397e-14
1.74112e-14
1.76588e-14
1.79214e-14
1.81899e-14
1.84537e-14
1.87224e-14
1.89914e-14
1.92511e-14
1.95181e-14
1.98032e-14
2.00733e-14
2.03703e-14
2.06735e-14
2.09566e-14
2.13494e-14
2.17527e-14
2.19432e-14
2.25263e-14
2.32785e-14
2.34603e-14
2.34514e-14
2.50259e-14
2.54622e-14
7.38284e-15
8.01836e-15
8.61395e-15
9.01358e-15
9.51613e-15
1.00225e-14
1.04294e-14
1.07211e-14
1.10674e-14
1.14161e-14
1.1701e-14
1.1945e-14
1.21989e-14
1.2459e-14
1.26998e-14
1.29397e-14
1.31848e-14
1.34156e-14
1.36432e-14
1.38832e-14
1.41204e-14
1.43421e-14
1.45667e-14
1.4799e-14
1.50377e-14
1.52746e-14
1.55163e-14
1.57563e-14
1.60018e-14
1.62468e-14
1.64706e-14
1.66875e-14
1.69178e-14
1.71459e-14
1.73695e-14
1.76026e-14
1.78496e-14
1.80777e-14
1.83053e-14
1.85456e-14
1.87944e-14
1.90415e-14
1.92884e-14
1.95378e-14
1.98057e-14
2.00815e-14
2.03651e-14
2.0682e-14
2.09848e-14
2.14083e-14
2.18777e-14
2.1896e-14
2.2761e-14
2.35106e-14
2.38492e-14
2.43736e-14
8.42779e-15
8.79114e-15
9.39724e-15
9.80359e-15
1.03407e-14
1.07041e-14
1.09598e-14
1.12499e-14
1.1611e-14
1.18685e-14
1.21182e-14
1.23688e-14
1.2612e-14
1.28335e-14
1.30425e-14
1.32577e-14
1.34715e-14
1.36767e-14
1.38817e-14
1.40889e-14
1.42913e-14
1.44982e-14
1.47054e-14
1.49147e-14
1.51216e-14
1.53354e-14
1.5545e-14
1.57564e-14
1.59732e-14
1.61864e-14
1.64113e-14
1.66338e-14
1.68328e-14
1.70393e-14
1.72611e-14
1.74685e-14
1.76656e-14
1.78707e-14
1.80735e-14
1.82785e-14
1.84825e-14
1.86864e-14
1.88985e-14
1.9123e-14
1.93572e-14
1.95995e-14
1.98374e-14
2.01452e-14
2.04624e-14
2.06774e-14
2.10863e-14
2.15788e-14
2.18788e-14
2.18284e-14
2.29528e-14
2.33144e-14
9.53418e-15
9.88099e-15
1.05038e-14
1.08028e-14
1.11504e-14
1.13518e-14
1.16814e-14
1.19927e-14
1.2236e-14
1.24686e-14
1.26919e-14
1.28834e-14
1.30963e-14
1.32985e-14
1.34812e-14
1.36605e-14
1.38345e-14
1.4013e-14
1.41902e-14
1.43576e-14
1.45296e-14
1.47173e-14
1.48912e-14
1.50651e-14
1.52432e-14
1.54213e-14
1.55992e-14
1.57808e-14
1.59612e-14
1.61365e-14
1.63194e-14
1.65013e-14
1.66815e-14
1.68576e-14
1.70329e-14
1.72048e-14
1.73764e-14
1.7551e-14
1.77291e-14
1.79058e-14
1.80826e-14
1.82681e-14
1.8459e-14
1.86465e-14
1.88449e-14
1.90643e-14
1.92896e-14
1.95244e-14
1.97442e-14
2.00462e-14
2.04346e-14
2.04567e-14
2.10291e-14
2.14993e-14
2.18146e-14
2.21853e-14
1.06658e-14
1.09802e-14
1.14131e-14
1.16405e-14
1.19585e-14
1.21472e-14
1.24825e-14
1.27174e-14
1.28629e-14
1.3077e-14
1.3283e-14
1.34469e-14
1.36108e-14
1.37716e-14
1.39185e-14
1.40753e-14
1.42226e-14
1.43647e-14
1.45054e-14
1.46597e-14
1.47976e-14
1.49319e-14
1.5075e-14
1.52223e-14
1.5363e-14
1.55063e-14
1.56543e-14
1.58024e-14
1.59458e-14
1.60937e-14
1.62319e-14
1.63703e-14
1.6513e-14
1.6658e-14
1.67975e-14
1.69357e-14
1.7083e-14
1.72296e-14
1.73728e-14
1.75164e-14
1.76649e-14
1.78193e-14
1.79719e-14
1.81311e-14
1.83033e-14
1.84788e-14
1.86439e-14
1.88655e-14
1.90911e-14
1.9243e-14
1.95492e-14
1.98008e-14
2.01517e-14
2.01424e-14
2.08078e-14
2.10684e-14
1.1803e-14
1.20414e-14
1.23252e-14
1.25632e-14
1.28372e-14
1.29701e-14
1.3205e-14
1.33708e-14
1.35184e-14
1.36866e-14
1.38224e-14
1.39702e-14
1.41022e-14
1.42205e-14
1.4341e-14
1.4463e-14
1.45828e-14
1.46951e-14
1.48058e-14
1.49147e-14
1.50316e-14
1.51374e-14
1.52499e-14
1.53556e-14
1.54654e-14
1.55774e-14
1.57001e-14
1.58173e-14
1.59345e-14
1.60491e-14
1.61561e-14
1.6268e-14
1.63813e-14
1.6492e-14
1.66041e-14
1.6716e-14
1.6827e-14
1.69371e-14
1.70486e-14
1.71628e-14
1.72787e-14
1.73943e-14
1.75133e-14
1.76393e-14
1.77731e-14
1.7905e-14
1.80503e-14
1.82259e-14
1.83549e-14
1.85149e-14
1.88462e-14
1.88548e-14
1.90981e-14
1.93994e-14
1.9708e-14
1.99139e-14
1.2963e-14
1.31471e-14
1.33477e-14
1.35105e-14
1.3718e-14
1.37868e-14
1.39583e-14
1.4078e-14
1.41827e-14
1.43081e-14
1.44136e-14
1.45001e-14
1.45874e-14
1.46912e-14
1.47904e-14
1.48633e-14
1.49414e-14
1.50258e-14
1.51129e-14
1.51837e-14
1.52675e-14
1.53499e-14
1.54345e-14
1.55178e-14
1.561e-14
1.56876e-14
1.57552e-14
1.58162e-14
1.58912e-14
1.59768e-14
1.60691e-14
1.61555e-14
1.62333e-14
1.63104e-14
1.63897e-14
1.64765e-14
1.65531e-14
1.66305e-14
1.67127e-14
1.67948e-14
1.68754e-14
1.69633e-14
1.70527e-14
1.71457e-14
1.7242e-14
1.73363e-14
1.7432e-14
1.75501e-14
1.7686e-14
1.77798e-14
1.791e-14
1.79989e-14
1.83494e-14
1.83291e-14
1.85612e-14
1.87546e-14
1.41265e-14
1.42489e-14
1.43739e-14
1.44612e-14
1.45879e-14
1.46099e-14
1.47378e-14
1.48155e-14
1.48609e-14
1.49257e-14
1.50469e-14
1.51012e-14
1.51042e-14
1.51809e-14
1.52313e-14
1.52759e-14
1.53266e-14
1.5377e-14
1.54252e-14
1.54728e-14
1.55149e-14
1.55652e-14
1.56046e-14
1.5642e-14
1.56818e-14
1.57338e-14
1.57936e-14
1.58635e-14
1.59191e-14
1.59535e-14
1.599e-14
1.60347e-14
1.60815e-14
1.61328e-14
1.61792e-14
1.6218e-14
1.62685e-14
1.63189e-14
1.63661e-14
1.64138e-14
1.64621e-14
1.65139e-14
1.6565e-14
1.66258e-14
1.66464e-14
1.67107e-14
1.68022e-14
1.68951e-14
1.69261e-14
1.69351e-14
1.72189e-14
1.71913e-14
1.71523e-14
1.72575e-14
1.75558e-14
1.75935e-14
1.5301e-14
1.53492e-14
1.53699e-14
1.54164e-14
1.54769e-14
1.54465e-14
1.55157e-14
1.55439e-14
1.55567e-14
1.55796e-14
1.56139e-14
1.5621e-14
1.56297e-14
1.56733e-14
1.5668e-14
1.56835e-14
1.57062e-14
1.57172e-14
1.57263e-14
1.57462e-14
1.57626e-14
1.57771e-14
1.57936e-14
1.58197e-14
1.58335e-14
1.58474e-14
1.58492e-14
1.58517e-14
1.58638e-14
1.58862e-14
1.59044e-14
1.59226e-14
1.59341e-14
1.59472e-14
1.59681e-14
1.59772e-14
1.59966e-14
1.601e-14
1.6022e-14
1.60407e-14
1.60563e-14
1.60655e-14
1.60731e-14
1.61078e-14
1.61168e-14
1.61362e-14
1.61496e-14
1.61674e-14
1.62179e-14
1.62643e-14
1.62465e-14
1.60963e-14
1.65178e-14
1.64238e-14
1.63208e-14
1.64085e-14
1.64721e-14
1.6459e-14
1.63911e-14
1.63702e-14
1.63777e-14
1.62838e-14
1.62952e-14
1.62665e-14
1.62184e-14
1.62151e-14
1.61759e-14
1.6159e-14
1.61583e-14
1.61132e-14
1.61067e-14
1.6095e-14
1.60747e-14
1.60535e-14
1.60399e-14
1.60253e-14
1.60061e-14
1.59835e-14
1.59721e-14
1.5962e-14
1.59462e-14
1.59226e-14
1.59017e-14
1.58696e-14
1.58469e-14
1.5838e-14
1.58261e-14
1.58062e-14
1.57896e-14
1.57667e-14
1.57506e-14
1.57388e-14
1.57184e-14
1.56973e-14
1.56837e-14
1.56643e-14
1.56469e-14
1.56324e-14
1.56298e-14
1.5587e-14
1.55786e-14
1.55606e-14
1.55293e-14
1.55406e-14
1.54689e-14
1.53641e-14
1.55337e-14
1.54608e-14
1.5256e-14
1.50541e-14
1.53704e-14
1.52481e-14
1.76517e-14
1.76077e-14
1.74015e-14
1.73159e-14
1.72778e-14
1.71171e-14
1.70778e-14
1.69977e-14
1.6906e-14
1.68691e-14
1.67571e-14
1.66881e-14
1.66819e-14
1.66085e-14
1.65587e-14
1.65069e-14
1.64525e-14
1.64064e-14
1.63564e-14
1.63005e-14
1.62492e-14
1.6208e-14
1.61472e-14
1.60826e-14
1.60247e-14
1.59768e-14
1.5944e-14
1.59158e-14
1.58691e-14
1.58085e-14
1.57409e-14
1.56885e-14
1.56423e-14
1.55967e-14
1.55375e-14
1.54907e-14
1.54351e-14
1.5391e-14
1.53412e-14
1.52878e-14
1.52349e-14
1.51877e-14
1.51285e-14
1.50586e-14
1.5048e-14
1.49927e-14
1.48703e-14
1.48008e-14
1.47667e-14
1.47389e-14
1.45498e-14
1.42567e-14
1.46828e-14
1.44397e-14
1.41007e-14
1.40566e-14
1.88138e-14
1.86698e-14
1.84039e-14
1.82757e-14
1.81647e-14
1.79337e-14
1.78501e-14
1.77214e-14
1.75816e-14
1.74895e-14
1.73772e-14
1.72749e-14
1.71866e-14
1.70869e-14
1.69958e-14
1.69063e-14
1.6825e-14
1.67396e-14
1.6657e-14
1.65732e-14
1.64937e-14
1.64106e-14
1.6333e-14
1.62609e-14
1.61865e-14
1.60978e-14
1.59991e-14
1.58963e-14
1.58097e-14
1.5731e-14
1.5657e-14
1.55791e-14
1.54932e-14
1.54091e-14
1.53285e-14
1.52476e-14
1.51657e-14
1.50827e-14
1.4998e-14
1.49159e-14
1.48314e-14
1.4747e-14
1.46552e-14
1.45564e-14
1.44659e-14
1.43639e-14
1.42464e-14
1.41885e-14
1.401e-14
1.3784e-14
1.38954e-14
1.37348e-14
1.3264e-14
1.29874e-14
1.31858e-14
1.2909e-14
1.99829e-14
1.98189e-14
1.94131e-14
1.92064e-14
1.90506e-14
1.87567e-14
1.86167e-14
1.84394e-14
1.82493e-14
1.81088e-14
1.79629e-14
1.78208e-14
1.76897e-14
1.7561e-14
1.74376e-14
1.73202e-14
1.72028e-14
1.70828e-14
1.69689e-14
1.68554e-14
1.6744e-14
1.66211e-14
1.65081e-14
1.63851e-14
1.62709e-14
1.6152e-14
1.60499e-14
1.59306e-14
1.58223e-14
1.56966e-14
1.55857e-14
1.54585e-14
1.53491e-14
1.52253e-14
1.51222e-14
1.49967e-14
1.48907e-14
1.47669e-14
1.46611e-14
1.4536e-14
1.44239e-14
1.42943e-14
1.41827e-14
1.40428e-14
1.39177e-14
1.37881e-14
1.36331e-14
1.34439e-14
1.33422e-14
1.32196e-14
1.28722e-14
1.24594e-14
1.28617e-14
1.25038e-14
1.18521e-14
1.17264e-14
2.11256e-14
2.08499e-14
2.04067e-14
2.01191e-14
1.99155e-14
1.95659e-14
1.93692e-14
1.91445e-14
1.89067e-14
1.87309e-14
1.85397e-14
1.83628e-14
1.81886e-14
1.80388e-14
1.78722e-14
1.77327e-14
1.75668e-14
1.74368e-14
1.72715e-14
1.71444e-14
1.69747e-14
1.68532e-14
1.66842e-14
1.65588e-14
1.63841e-14
1.62613e-14
1.60839e-14
1.59635e-14
1.57841e-14
1.56618e-14
1.54778e-14
1.53568e-14
1.51819e-14
1.50635e-14
1.48854e-14
1.47686e-14
1.45958e-14
1.44766e-14
1.43032e-14
1.41807e-14
1.40054e-14
1.3879e-14
1.37005e-14
1.3553e-14
1.33726e-14
1.32005e-14
1.29933e-14
1.28832e-14
1.25799e-14
1.22066e-14
1.23275e-14
1.20497e-14
1.13224e-14
1.09204e-14
1.10201e-14
1.0608e-14
2.22639e-14
2.19523e-14
2.13768e-14
2.09925e-14
2.07429e-14
2.03168e-14
2.00807e-14
1.98101e-14
1.95333e-14
1.93001e-14
1.90857e-14
1.8862e-14
1.86713e-14
1.84687e-14
1.82862e-14
1.80867e-14
1.79196e-14
1.77297e-14
1.75663e-14
1.73738e-14
1.72117e-14
1.7025e-14
1.6856e-14
1.66698e-14
1.65022e-14
1.63142e-14
1.61411e-14
1.59536e-14
1.57768e-14
1.55901e-14
1.54164e-14
1.52369e-14
1.50611e-14
1.48797e-14
1.47027e-14
1.45271e-14
1.43479e-14
1.41756e-14
1.39991e-14
1.38243e-14
1.36401e-14
1.34649e-14
1.32725e-14
1.30816e-14
1.28744e-14
1.26871e-14
1.24512e-14
1.2161e-14
1.19366e-14
1.18752e-14
1.12812e-14
1.0595e-14
1.11602e-14
1.07522e-14
9.67416e-15
9.44511e-15
2.33753e-14
2.29737e-14
2.23194e-14
2.1885e-14
2.16167e-14
2.10968e-14
2.07994e-14
2.04885e-14
2.01725e-14
1.98961e-14
1.96574e-14
1.93834e-14
1.91722e-14
1.89148e-14
1.87423e-14
1.84871e-14
1.83277e-14
1.80536e-14
1.79154e-14
1.76366e-14
1.75104e-14
1.72101e-14
1.7095e-14
1.67873e-14
1.66795e-14
1.63557e-14
1.62569e-14
1.59151e-14
1.58234e-14
1.54807e-14
1.53991e-14
1.50534e-14
1.49781e-14
1.46379e-14
1.45699e-14
1.42159e-14
1.41416e-14
1.38021e-14
1.37224e-14
1.33813e-14
1.32912e-14
1.29514e-14
1.28398e-14
1.25168e-14
1.23952e-14
1.20491e-14
1.18355e-14
1.15691e-14
1.13466e-14
1.06626e-14
1.06822e-14
1.06401e-14
9.56276e-15
8.74824e-15
8.99134e-15
8.37887e-15
2.44582e-14
2.39391e-14
2.3298e-14
2.26256e-14
2.23572e-14
2.18623e-14
2.14653e-14
2.11397e-14
2.07755e-14
2.05004e-14
2.01711e-14
1.99331e-14
1.964e-14
1.94333e-14
1.91196e-14
1.8932e-14
1.86301e-14
1.84728e-14
1.81451e-14
1.80002e-14
1.766e-14
1.75305e-14
1.71832e-14
1.70491e-14
1.66923e-14
1.6562e-14
1.61947e-14
1.60655e-14
1.56874e-14
1.55595e-14
1.5174e-14
1.50438e-14
1.46639e-14
1.45344e-14
1.41688e-14
1.40662e-14
1.3723e-14
1.35872e-14
1.32488e-14
1.31229e-14
1.27977e-14
1.26569e-14
1.23279e-14
1.2139e-14
1.17886e-14
1.15735e-14
1.12707e-14
1.09803e-14
1.0536e-14
1.04301e-14
1.0003e-14
8.81136e-15
9.37267e-15
9.00727e-15
7.68346e-15
7.25805e-15
2.55078e-14
2.49141e-14
2.411e-14
2.34524e-14
2.30436e-14
2.24804e-14
2.20651e-14
2.16866e-14
2.12761e-14
2.09652e-14
2.06228e-14
2.03468e-14
2.0001e-14
1.97746e-14
1.94366e-14
1.92492e-14
1.88839e-14
1.87269e-14
1.83474e-14
1.82153e-14
1.78057e-14
1.77013e-14
1.72541e-14
1.718e-14
1.6709e-14
1.66548e-14
1.61577e-14
1.61195e-14
1.55942e-14
1.55722e-14
1.503e-14
1.5028e-14
1.4491e-14
1.45042e-14
1.39569e-14
1.39784e-14
1.34148e-14
1.34504e-14
1.29321e-14
1.29387e-14
1.23989e-14
1.24041e-14
1.18887e-14
1.18363e-14
1.13491e-14
1.12694e-14
1.07084e-14
1.05413e-14
1.0086e-14
9.68569e-15
9.07041e-15
9.12836e-15
8.3111e-15
7.0907e-15
6.94327e-15
6.2491e-15
2.65364e-14
2.59835e-14
2.49001e-14
2.44196e-14
2.38326e-14
2.31779e-14
2.28126e-14
2.23256e-14
2.19331e-14
2.15391e-14
2.1262e-14
2.0848e-14
2.06319e-14
2.02289e-14
2.00631e-14
1.96273e-14
1.9506e-14
1.90187e-14
1.89467e-14
1.84051e-14
1.83772e-14
1.77839e-14
1.77896e-14
1.71558e-14
1.71847e-14
1.6515e-14
1.65539e-14
1.58419e-14
1.59169e-14
1.51847e-14
1.52969e-14
1.45845e-14
1.47115e-14
1.39889e-14
1.41047e-14
1.33524e-14
1.34739e-14
1.2781e-14
1.2821e-14
1.2145e-14
1.22032e-14
1.15435e-14
1.15566e-14
1.09562e-14
1.09246e-14
1.03362e-14
1.01934e-14
9.67275e-15
9.44192e-15
8.84308e-15
8.60742e-15
7.70015e-15
7.1431e-15
7.28133e-15
5.69695e-15
5.19251e-15
2.74951e-14
2.67559e-14
2.53381e-14
2.49314e-14
2.43539e-14
2.37067e-14
2.32798e-14
2.2822e-14
2.23922e-14
2.20168e-14
2.16531e-14
2.12972e-14
2.09817e-14
2.06309e-14
2.03149e-14
1.99681e-14
1.96873e-14
1.93229e-14
1.90528e-14
1.86776e-14
1.84172e-14
1.80323e-14
1.77824e-14
1.7361e-14
1.71385e-14
1.67198e-14
1.64951e-14
1.60145e-14
1.57632e-14
1.52527e-14
1.49889e-14
1.44484e-14
1.42039e-14
1.37246e-14
1.35757e-14
1.31485e-14
1.30092e-14
1.24968e-14
1.24078e-14
1.20062e-14
1.18987e-14
1.1432e-14
1.12737e-14
1.07883e-14
1.0597e-14
1.01158e-14
9.91468e-15
9.40534e-15
9.07036e-15
8.4536e-15
8.21694e-15
7.52627e-15
6.95993e-15
6.20719e-15
5.0337e-15
4.26232e-15
2.84173e-14
2.77042e-14
2.64462e-14
2.56175e-14
2.50082e-14
2.42655e-14
2.36947e-14
2.32806e-14
2.27743e-14
2.24193e-14
2.19692e-14
2.16924e-14
2.12388e-14
2.10361e-14
2.05567e-14
2.04064e-14
1.98738e-14
1.97759e-14
1.91719e-14
1.91309e-14
1.84449e-14
1.8443e-14
1.76942e-14
1.77717e-14
1.7002e-14
1.7137e-14
1.62452e-14
1.63155e-14
1.53524e-14
1.54858e-14
1.45816e-14
1.49483e-14
1.41263e-14
1.43708e-14
1.33728e-14
1.35738e-14
1.26029e-14
1.28291e-14
1.19481e-14
1.19997e-14
1.10781e-14
1.12583e-14
1.04619e-14
1.05459e-14
9.81256e-15
9.81816e-15
9.06101e-15
8.94622e-15
8.30615e-15
8.03379e-15
7.22783e-15
6.59152e-15
6.15767e-15
5.25619e-15
4.07056e-15
3.33766e-15
2.93179e-14
2.82753e-14
2.69501e-14
2.60326e-14
2.54387e-14
2.48534e-14
2.43298e-14
2.38352e-14
2.34043e-14
2.3e-14
2.26322e-14
2.22476e-14
2.18998e-14
2.15256e-14
2.11937e-14
2.08092e-14
2.04691e-14
2.0077e-14
1.97319e-14
1.93168e-14
1.89676e-14
1.85416e-14
1.81621e-14
1.76557e-14
1.72326e-14
1.67651e-14
1.63834e-14
1.59903e-14
1.57836e-14
1.53802e-14
1.49903e-14
1.44627e-14
1.40083e-14
1.34942e-14
1.31439e-14
1.27122e-14
1.23889e-14
1.19667e-14
1.16151e-14
1.12615e-14
1.09732e-14
1.05818e-14
1.02352e-14
9.86305e-15
9.52099e-15
9.13846e-15
8.76411e-15
8.37012e-15
7.93154e-15
7.43863e-15
6.93255e-15
6.34388e-15
5.69699e-15
4.78036e-15
3.52618e-15
2.44418e-15
3.00401e-14
2.85438e-14
2.72578e-14
2.64264e-14
2.57365e-14
2.51287e-14
2.46032e-14
2.41324e-14
2.37049e-14
2.33015e-14
2.29209e-14
2.25469e-14
2.21864e-14
2.1819e-14
2.14598e-14
2.10852e-14
2.07177e-14
2.03285e-14
1.99475e-14
1.95395e-14
1.91435e-14
1.87167e-14
1.8325e-14
1.80108e-14
1.77895e-14
1.74669e-14
1.69842e-14
1.62564e-14
1.54727e-14
1.47487e-14
1.42759e-14
1.3956e-14
1.37407e-14
1.34218e-14
1.30366e-14
1.26016e-14
1.22125e-14
1.17959e-14
1.14186e-14
1.10213e-14
1.06597e-14
1.0274e-14
9.92254e-15
9.54841e-15
9.19446e-15
8.81334e-15
8.43976e-15
8.03115e-15
7.60646e-15
7.1297e-15
6.61104e-15
6.00496e-15
5.31462e-15
4.48432e-15
3.2034e-15
1.70821e-15
)
;

boundaryField
{
    top
    {
        type            zeroGradient;
    }
    bottom
    {
        type            zeroGradient;
    }
    rotatingWall
    {
        type            zeroGradient;
    }
    wall
    {
        type            zeroGradient;
    }
    frontAndBack
    {
        type            empty;
    }
}


// ************************************************************************* //
