/*--------------------------------*- C++ -*----------------------------------*\
| =========                 |                                                 |
| \\      /  F ield         | OpenFOAM: The Open Source CFD Toolbox           |
|  \\    /   O peration     | Version:  5.0                                   |
|   \\  /    A nd           | Web:      www.OpenFOAM.org                      |
|    \\/     M anipulation  |                                                 |
\*---------------------------------------------------------------------------*/
FoamFile
{
    version     2.0;
    format      ascii;
    class       volVectorField;
    location    "1.6";
    object      U;
}
// * * * * * * * * * * * * * * * * * * * * * * * * * * * * * * * * * * * * * //

dimensions      [0 1 -1 0 0 0 0];

internalField   nonuniform List<vector> 
50
(
(1.00857 6.0363e-07 9.74206e-28)
(1.00848 -1.41046e-06 -3.2596e-23)
(1.00876 8.74536e-07 -3.263e-23)
(1.00814 -2.07818e-05 -3.2566e-23)
(1.01019 -6.76218e-05 -4.75432e-25)
(1.00738 -0.000999388 6.64653e-23)
(1.06017 0.00117023 8.36011e-23)
(1.06249 -0.000127803 -4.062e-23)
(1.06397 2.07254e-05 -4.62128e-25)
(1.06562 -0.00506587 2.01635e-23)
(0.927881 2.02305e-06 -7.17375e-37)
(0.927797 -4.58975e-06 2.82248e-23)
(0.928058 4.31202e-06 4.07676e-27)
(0.927463 -5.78598e-05 -2.84379e-23)
(0.928835 -0.000140157 -2.82116e-23)
(0.926307 -0.00420675 1.64414e-23)
(0.908366 -0.00536528 5.3131e-23)
(0.906434 -0.000752775 7.21045e-23)
(0.906758 -0.000125631 -4.69769e-25)
(0.90639 0.00074197 -9.56695e-23)
(0.766511 3.19737e-06 -2.76042e-23)
(0.766439 -7.0102e-06 -7.30404e-26)
(0.766658 9.14455e-06 2.82326e-23)
(0.766139 -6.77719e-05 -5.63687e-23)
(0.766957 -6.5917e-05 -5.63203e-23)
(0.764951 -0.0025214 2.65177e-23)
(0.751834 -0.00292382 3.07965e-23)
(0.749102 -0.000459427 2.97411e-23)
(0.749118 -0.000106596 1.60379e-25)
(0.748365 4.70275e-05 -3.19462e-23)
(0.524456 2.91985e-06 5.5296e-23)
(0.524403 -6.21239e-06 2.81425e-23)
(0.524559 9.64039e-06 -5.64635e-23)
(0.524182 -4.59777e-05 -2.79451e-23)
(0.524659 8.18413e-06 5.72585e-23)
(0.523363 -0.000774449 6.58587e-23)
(0.514997 -0.000899902 3.89889e-23)
(0.512614 -0.0001597 1.81035e-24)
(0.512549 -5.3683e-05 -2.75844e-23)
(0.511878 -0.000159748 -2.79952e-24)
(0.201714 1.08725e-06 3.97193e-23)
(0.201692 -2.28366e-06 2.01063e-23)
(0.201758 3.75614e-06 -6.03578e-23)
(0.2016 -1.46834e-05 -2.00913e-23)
(0.20179 1.01582e-05 4.02453e-23)
(0.201339 -0.00014293 3.81382e-23)
(0.198215 -0.000177966 1.98308e-23)
(0.197143 -3.29766e-05 -4.14045e-25)
(0.197129 -1.37907e-05 0)
(0.196814 -5.55234e-05 0)
)
;

boundaryField
{
    top
    {
        type            fixedValue;
        value           uniform (0 0 0);
    }
    bottom
    {
        type            symmetryPlane;
    }
    inlet
    {
        type            pressureInletVelocity;
        value           nonuniform List<vector> 5((1.00856 0 0) (0.927873 0 0) (0.766503 0 0) (0.524448 0 0) (0.201709 0 0));
    }
    outlet
    {
        type            inletOutlet;
        inletValue      uniform (1 0 0);
        value           nonuniform List<vector> 5((1.06562 -0.00506587 2.01635e-23) (0.90639 0.00074197 -9.56695e-23) (0.748365 4.70275e-05 -3.19462e-23) (0.511878 -0.000159748 -2.79952e-24) (0.196814 -5.55234e-05 0));
    }
    frontAndBack
    {
        type            empty;
    }
}


// ************************************************************************* //
