/*--------------------------------*- C++ -*----------------------------------*\
| =========                 |                                                 |
| \\      /  F ield         | OpenFOAM: The Open Source CFD Toolbox           |
|  \\    /   O peration     | Version:  5.0                                   |
|   \\  /    A nd           | Web:      www.OpenFOAM.org                      |
|    \\/     M anipulation  |                                                 |
\*---------------------------------------------------------------------------*/
FoamFile
{
    version     2.0;
    format      ascii;
    class       volScalarField;
    location    "4.9";
    object      nu;
}
// * * * * * * * * * * * * * * * * * * * * * * * * * * * * * * * * * * * * * //

dimensions      [0 2 -1 0 0 0 0];

internalField   nonuniform List<scalar> 
25
(
8.82226
7.5054
7.31684
7.24587
7.236
9.83537
9.72923
9.71572
9.70798
9.7026
9.83772
9.83672
9.83525
9.83538
9.82882
9.83944
9.85685
9.85881
9.86036
9.8549
9.95336
9.95508
9.95627
9.95551
9.95695
)
;

boundaryField
{
    top
    {
        type            calculated;
        value           nonuniform List<scalar> 5(9.98052 9.9807 9.98122 9.98072 9.98207);
    }
    bottom
    {
        type            symmetryPlane;
    }
    inlet
    {
        type            calculated;
        value           nonuniform 0();
    }
    outlet
    {
        type            calculated;
        value           nonuniform List<scalar> 5(7.2164 9.70197 9.82869 9.85553 9.95743);
    }
    frontAndBack
    {
        type            empty;
    }
    procBoundary1to0
    {
        type            processor;
        value           nonuniform List<scalar> 5(8.79878 9.83316 9.83546 9.83705 9.95293);
    }
}


// ************************************************************************* //
