/*--------------------------------*- C++ -*----------------------------------*\
| =========                 |                                                 |
| \\      /  F ield         | OpenFOAM: The Open Source CFD Toolbox           |
|  \\    /   O peration     | Version:  5.0                                   |
|   \\  /    A nd           | Web:      www.OpenFOAM.org                      |
|    \\/     M anipulation  |                                                 |
\*---------------------------------------------------------------------------*/
FoamFile
{
    version     2.0;
    format      ascii;
    class       volScalarField;
    location    "2.1";
    object      p;
}
// * * * * * * * * * * * * * * * * * * * * * * * * * * * * * * * * * * * * * //

dimensions      [0 2 -2 0 0 0 0];

internalField   nonuniform List<scalar> 
50
(
18.9768
17.0271
15.044
13.0674
11.0919
9.12089
7.14562
5.07521
3.05573
1.0231
19.0453
17.029
15.0439
13.0655
11.0568
9.12003
7.11134
5.07127
3.05263
0.983353
19.0974
17.0308
15.0439
13.064
11.0304
9.12588
7.09216
5.0688
3.04978
0.953298
19.0271
17.0288
15.0439
13.0646
11.0655
9.0958
7.09587
5.06957
3.05115
1.019
18.8059
17.0225
15.0442
13.0678
11.1762
8.99905
7.10673
5.07277
3.05832
1.23318
)
;

boundaryField
{
    top
    {
        type            zeroGradient;
    }
    bottom
    {
        type            symmetryPlane;
    }
    inlet
    {
        type            fixedValue;
        value           uniform 20;
    }
    outlet
    {
        type            fixedValue;
        value           uniform 0;
    }
    frontAndBack
    {
        type            empty;
    }
}


// ************************************************************************* //
