/*--------------------------------*- C++ -*----------------------------------*\
| =========                 |                                                 |
| \\      /  F ield         | OpenFOAM: The Open Source CFD Toolbox           |
|  \\    /   O peration     | Version:  5.0                                   |
|   \\  /    A nd           | Web:      www.OpenFOAM.org                      |
|    \\/     M anipulation  |                                                 |
\*---------------------------------------------------------------------------*/
FoamFile
{
    version     2.0;
    format      ascii;
    class       surfaceScalarField;
    location    "2.1";
    object      phi;
}
// * * * * * * * * * * * * * * * * * * * * * * * * * * * * * * * * * * * * * //

dimensions      [0 3 -1 0 0 0 0];

internalField   nonuniform List<scalar> 
85
(
0.000199702
6.23014e-07
0.00019978
-7.74616e-08
0.000199756
2.34773e-08
0.000199477
2.79382e-07
0.000199411
6.52182e-08
0.000195037
4.37458e-06
0.000190518
4.51884e-06
0.000189824
6.93857e-07
0.00018945
3.74454e-07
3.0303e-07
0.000159886
-1.28667e-07
0.000159743
6.63677e-08
0.000159729
3.71276e-08
0.00015983
1.78119e-07
0.000159477
4.18864e-07
0.000160781
3.06994e-06
0.000161608
3.69233e-06
0.000161647
6.54724e-07
0.000161746
2.75672e-07
9.93503e-07
0.000120002
-1.18063e-06
0.000119765
3.03402e-07
0.000119768
3.42163e-08
0.000119978
-3.20247e-08
0.000119636
7.60866e-07
0.000122012
6.94148e-07
0.000123941
1.76352e-06
0.000124303
2.92489e-07
0.000124678
-9.99117e-08
1.63996e-06
7.99083e-05
-1.27993e-06
7.98304e-05
3.81329e-07
7.98518e-05
1.27331e-08
7.99605e-05
-1.40673e-07
8.00367e-05
6.84664e-07
8.10856e-05
-3.54748e-07
8.22447e-05
6.04398e-07
8.24921e-05
4.51526e-08
8.27342e-05
-3.42093e-07
1.4265e-06
3.9645e-05
4.00264e-05
4.00391e-05
3.98984e-05
4.05831e-05
4.02283e-05
4.08327e-05
4.08779e-05
4.05358e-05
)
;

boundaryField
{
    top
    {
        type            calculated;
        value           uniform 0;
    }
    bottom
    {
        type            symmetryPlane;
        value           uniform 0;
    }
    inlet
    {
        type            calculated;
        value           nonuniform List<scalar> 5(-0.000200325 -0.000159135 -0.00011895 -7.9809e-05 -4.0925e-05);
    }
    outlet
    {
        type            calculated;
        value           nonuniform List<scalar> 5(0.000189147 0.000161055 0.000124032 8.29477e-05 4.19623e-05);
    }
    frontAndBack
    {
        type            empty;
        value           nonuniform 0();
    }
}


// ************************************************************************* //
