/*--------------------------------*- C++ -*----------------------------------*\
| =========                 |                                                 |
| \\      /  F ield         | OpenFOAM: The Open Source CFD Toolbox           |
|  \\    /   O peration     | Version:  5.0                                   |
|   \\  /    A nd           | Web:      www.OpenFOAM.org                      |
|    \\/     M anipulation  |                                                 |
\*---------------------------------------------------------------------------*/
FoamFile
{
    version     2.0;
    format      ascii;
    class       volScalarField;
    location    "2.1";
    object      shearRate;
}
// * * * * * * * * * * * * * * * * * * * * * * * * * * * * * * * * * * * * * //

dimensions      [0 0 -1 0 0 0 0];

internalField   nonuniform List<scalar> 
50
(
5.13634
5.00543
5.02143
5.01934
4.97764
5.00892
3.66716
3.56391
3.51399
3.50784
10.1641
10.021
10.0336
10.0387
9.965
10.0086
8.39733
8.26054
8.19605
8.14669
9.97225
10.0492
10.0145
10.0425
9.97034
10.0151
9.97197
9.93547
9.94973
9.82011
9.87337
10.0541
9.99153
10.0337
9.96144
10.0098
10.4172
10.4544
10.5152
10.3763
15.0943
14.9998
15.0239
15.0269
15.0648
15.1111
15.361
15.469
15.4429
15.6096
)
;

boundaryField
{
    top
    {
        type            zeroGradient;
    }
    bottom
    {
        type            symmetryPlane;
    }
    inlet
    {
        type            zeroGradient;
    }
    outlet
    {
        type            zeroGradient;
    }
    frontAndBack
    {
        type            empty;
    }
}


// ************************************************************************* //
