/*--------------------------------*- C++ -*----------------------------------*\
| =========                 |                                                 |
| \\      /  F ield         | OpenFOAM: The Open Source CFD Toolbox           |
|  \\    /   O peration     | Version:  5.0                                   |
|   \\  /    A nd           | Web:      www.OpenFOAM.org                      |
|    \\/     M anipulation  |                                                 |
\*---------------------------------------------------------------------------*/
FoamFile
{
    version     2.0;
    format      ascii;
    class       volVectorField;
    location    "2.1";
    object      U;
}
// * * * * * * * * * * * * * * * * * * * * * * * * * * * * * * * * * * * * * //

dimensions      [0 1 -1 0 0 0 0];

internalField   nonuniform List<vector> 
50
(
(1.00081 0.00434409 6.27179e-23)
(0.999024 -2.04728e-06 -4.40615e-23)
(0.998027 2.14078e-06 -4.61769e-23)
(0.999639 6.0776e-05 -4.61305e-23)
(0.995062 -0.00210261 3.36792e-23)
(0.999214 0.00246665 9.07983e-23)
(0.952604 0.00088723 1.2359e-23)
(0.950286 0.000173971 -4.55006e-23)
(0.94895 0.000104771 5.30501e-24)
(0.945627 -0.00217535 7.8788e-24)
(0.796497 0.00363471 -8.88963e-37)
(0.799707 2.58479e-05 4.6617e-23)
(0.798106 3.82596e-05 6.72662e-26)
(0.799771 0.000257027 -3.72744e-23)
(0.796917 -0.00138908 -4.0949e-23)
(0.800114 0.00565981 -3.44558e-23)
(0.807011 0.00412014 -6.06288e-23)
(0.808374 0.000756767 6.56483e-23)
(0.809032 0.000347144 6.65696e-24)
(0.805983 -0.00084288 -1.5011e-22)
(0.596117 -4.38386e-05 -2.57534e-23)
(0.599891 0.00024648 3.02295e-25)
(0.598451 3.70207e-05 2.75447e-23)
(0.599808 3.81124e-05 -5.57642e-23)
(0.598228 0.000280329 -5.46197e-23)
(0.600597 0.00259965 4.84403e-23)
(0.618192 0.00312906 4.09146e-23)
(0.621272 0.000491521 3.04532e-23)
(0.622518 2.87001e-05 -1.25931e-24)
(0.621163 -0.000461946 -5.76947e-23)
(0.399253 -0.00267354 -1.47146e-22)
(0.399264 0.000344568 3.15071e-23)
(0.399092 2.41597e-05 -4.12094e-23)
(0.3996 -9.56011e-05 -1.58288e-23)
(0.399669 0.00146278 -5.36126e-23)
(0.401106 -0.000596558 1.24224e-22)
(0.409726 0.00116461 1.16708e-23)
(0.412483 0.000153401 -2.6297e-24)
(0.412588 -0.000241054 -2.14868e-23)
(0.414714 0.00283273 -1.88397e-22)
(0.202692 -0.0114406 3.63809e-23)
(0.199065 5.9111e-05 1.56912e-23)
(0.200151 1.68648e-05 -4.9482e-23)
(0.199798 -2.22697e-06 -1.5046e-23)
(0.201163 0.00573633 3.40688e-23)
(0.20162 -0.00523676 3.18969e-25)
(0.202948 0.000646671 1.65051e-23)
(0.204515 0.000115048 1.12342e-24)
(0.20335 -1.64214e-05 0)
(0.207701 0.0116802 0)
)
;

boundaryField
{
    top
    {
        type            fixedValue;
        value           uniform (0 0 0);
    }
    bottom
    {
        type            symmetryPlane;
    }
    inlet
    {
        type            pressureInletVelocity;
        value           nonuniform List<vector> 5((1.00163 0 0) (0.795674 0 0) (0.59475 0 0) (0.399045 0 0) (0.204625 0 0));
    }
    outlet
    {
        type            inletOutlet;
        inletValue      uniform (1 0 0);
        value           nonuniform List<vector> 5((0.945627 -0.00217535 7.8788e-24) (0.805983 -0.00084288 -1.5011e-22) (0.621163 -0.000461946 -5.76947e-23) (0.414714 0.00283273 -1.88397e-22) (0.207701 0.0116802 0));
    }
    frontAndBack
    {
        type            empty;
    }
}


// ************************************************************************* //
