/*--------------------------------*- C++ -*----------------------------------*\
| =========                 |                                                 |
| \\      /  F ield         | OpenFOAM: The Open Source CFD Toolbox           |
|  \\    /   O peration     | Version:  5.0                                   |
|   \\  /    A nd           | Web:      www.OpenFOAM.org                      |
|    \\/     M anipulation  |                                                 |
\*---------------------------------------------------------------------------*/
FoamFile
{
    version     2.0;
    format      ascii;
    class       volVectorField;
    location    "5";
    object      U;
}
// * * * * * * * * * * * * * * * * * * * * * * * * * * * * * * * * * * * * * //

dimensions      [0 1 -1 0 0 0 0];

internalField   nonuniform List<vector> 
25
(
(0.985368 0.00241456 9.08011e-23)
(0.939611 0.00087129 1.29205e-23)
(0.937442 0.000170073 -4.53926e-23)
(0.936086 0.000102592 5.20812e-24)
(0.93283 -0.00212485 8.52109e-24)
(0.789872 0.00554134 -3.46581e-23)
(0.796566 0.00403345 -5.94647e-23)
(0.797959 0.000736757 6.57434e-23)
(0.798567 0.00034015 6.53974e-24)
(0.795583 -0.000823535 -1.4858e-22)
(0.593506 0.00254877 4.81441e-23)
(0.610722 0.00306307 4.06498e-23)
(0.613773 0.000478137 3.03822e-23)
(0.614966 2.75351e-05 -1.23595e-24)
(0.613648 -0.000456751 -5.72655e-23)
(0.396744 -0.000590892 1.2299e-22)
(0.405155 0.00113931 1.1836e-23)
(0.407871 0.000148288 -2.58036e-24)
(0.407954 -0.000237212 -2.14725e-23)
(0.410056 0.00278344 -1.85502e-22)
(0.199603 -0.00516681 7.95648e-25)
(0.200866 0.00063284 1.65038e-23)
(0.202405 0.000111793 1.10186e-24)
(0.20125 -1.56534e-05 0)
(0.205537 0.0115103 0)
)
;

boundaryField
{
    top
    {
        type            fixedValue;
        value           uniform (0 0 0);
    }
    bottom
    {
        type            symmetryPlane;
    }
    inlet
    {
        type            pressureInletVelocity;
        value           nonuniform 0();
    }
    outlet
    {
        type            inletOutlet;
        inletValue      uniform (1 0 0);
        value           nonuniform List<vector> 5((0.93283 -0.00212485 8.52109e-24) (0.795583 -0.000823535 -1.4858e-22) (0.613648 -0.000456751 -5.72655e-23) (0.410056 0.00278344 -1.85502e-22) (0.205537 0.0115103 0));
    }
    frontAndBack
    {
        type            empty;
    }
    procBoundary1to0
    {
        type            processor;
        value           nonuniform List<vector> 5((0.981194 -0.00205176 3.29813e-23) (0.786648 -0.00135348 -4.09479e-23) (0.591119 0.000274308 -5.46205e-23) (0.395296 0.00143894 -5.21571e-23) (0.199138 0.00565553 3.40531e-23));
    }
}


// ************************************************************************* //
