/*--------------------------------*- C++ -*----------------------------------*\
| =========                 |                                                 |
| \\      /  F ield         | OpenFOAM: The Open Source CFD Toolbox           |
|  \\    /   O peration     | Version:  5.0                                   |
|   \\  /    A nd           | Web:      www.OpenFOAM.org                      |
|    \\/     M anipulation  |                                                 |
\*---------------------------------------------------------------------------*/
FoamFile
{
    version     2.0;
    format      ascii;
    class       volVectorField;
    location    "0.1";
    object      U;
}
// * * * * * * * * * * * * * * * * * * * * * * * * * * * * * * * * * * * * * //

dimensions      [0 1 -1 0 0 0 0];

internalField   nonuniform List<vector> 
100
(
(0.00498857 -3.95143e-11 -1.30003e-31)
(0.00498857 -3.82586e-11 -1.29199e-31)
(0.00498857 3.81375e-11 1.66257e-31)
(0.00498857 -5.38753e-11 1.65855e-31)
(0.00498857 -1.3775e-10 1.60345e-30)
(0.00498857 9.99874e-11 5.62501e-31)
(0.00498857 8.82965e-11 1.54022e-30)
(0.00498857 -3.87474e-11 3.36006e-31)
(0.00498857 6.7265e-11 -1.29806e-30)
(0.00498857 6.28879e-11 4.97026e-31)
(0.0149668 -1.10117e-10 8.47592e-44)
(0.0149668 -1.1562e-10 6.0023e-31)
(0.0149668 7.06295e-11 1.05509e-30)
(0.0149669 -1.98026e-10 4.00791e-30)
(0.0149669 -4.23803e-10 -3.49855e-31)
(0.0149669 2.94604e-10 2.08622e-30)
(0.0149669 3.27155e-10 6.23943e-30)
(0.0149668 -7.35376e-11 2.18121e-30)
(0.0149668 2.30525e-10 -2.11818e-30)
(0.0149668 2.02841e-10 3.56222e-30)
(0.0249484 -1.05474e-10 4.07934e-31)
(0.0249484 -1.0218e-10 -2.84628e-30)
(0.0249484 9.87101e-11 3.30909e-32)
(0.0249484 -2.23437e-10 4.78514e-31)
(0.0249484 -6.22817e-10 -6.95674e-31)
(0.0249484 3.45983e-10 -3.55445e-32)
(0.0249484 4.96775e-10 -3.89126e-30)
(0.0249484 -9.32496e-11 -4.72481e-30)
(0.0249484 3.5883e-10 9.51001e-31)
(0.0249484 3.2906e-10 -1.38291e-30)
(0.0349349 -3.38447e-11 6.13917e-31)
(0.0349349 -3.25832e-11 -3.2096e-30)
(0.0349349 5.14834e-11 -6.81917e-32)
(0.0349349 -2.20099e-10 7.53684e-31)
(0.0349349 -7.24288e-10 3.59673e-30)
(0.0349349 2.88821e-10 1.44571e-30)
(0.0349349 6.46582e-10 -1.89909e-30)
(0.0349349 -2.02164e-11 -2.12522e-30)
(0.0349349 4.40094e-10 -1.347e-31)
(0.0349349 4.07786e-10 -1.40137e-30)
(0.0449279 1.37434e-10 -3.45345e-30)
(0.0449279 1.57165e-10 2.87067e-30)
(0.0449279 3.63418e-11 -1.03495e-31)
(0.0449279 6.62689e-11 -2.72375e-30)
(0.0449278 -4.74607e-10 3.28245e-30)
(0.0449278 -4.0096e-11 7.94358e-31)
(0.0449279 4.34708e-10 -1.91236e-31)
(0.0449279 8.25341e-12 1.69797e-30)
(0.0449279 3.52545e-10 0)
(0.0449279 3.34724e-10 0)
(0.0549278 2.78226e-10 8.2689e-31)
(0.0549278 2.90387e-10 1.85189e-30)
(0.0549278 -9.14474e-12 6.76404e-31)
(0.0549278 3.0617e-10 -2.53156e-30)
(0.0549278 -1.78166e-10 -3.50473e-31)
(0.0549278 -3.32173e-10 1.32117e-42)
(0.0549278 1.92099e-10 -6.65216e-31)
(0.0549278 6.62639e-11 2.34819e-30)
(0.0549278 1.96826e-10 0)
(0.0549278 2.00864e-10 0)
(0.0649349 3.76903e-10 5.73136e-44)
(0.0649349 4.07403e-10 -6.94286e-31)
(0.0649349 -3.34953e-11 1.03149e-30)
(0.0649349 5.15857e-10 6.96536e-30)
(0.0649349 1.9058e-10 -1.76413e-30)
(0.0649349 -5.93354e-10 1.5633e-30)
(0.0649349 -1.29283e-10 -2.07456e-30)
(0.0649349 9.05832e-11 6.26517e-31)
(0.0649349 1.75836e-11 1.96167e-30)
(0.0649349 3.4904e-11 0)
(0.0749483 3.14237e-10 -7.92094e-31)
(0.0749483 3.20258e-10 -1.18718e-30)
(0.0749483 -8.53329e-11 -3.12019e-32)
(0.0749483 4.24633e-10 -1.01589e-29)
(0.0749483 2.87306e-10 1.06774e-30)
(0.0749483 -5.32901e-10 5.96496e-30)
(0.0749483 -1.83847e-10 2.79355e-30)
(0.0749483 1.22083e-10 9.6407e-31)
(0.0749483 -8.86334e-11 1.74789e-30)
(0.0749483 -5.79899e-11 -3.81415e-31)
(0.0849668 2.04789e-10 2.28625e-30)
(0.0849668 2.21298e-10 1.98641e-30)
(0.0849668 -7.20536e-11 2.8818e-32)
(0.0849668 2.75784e-10 -6.86428e-30)
(0.0849668 2.78404e-10 1.40883e-30)
(0.0849668 -3.76522e-10 -4.99702e-30)
(0.0849668 -1.82259e-10 3.97704e-30)
(0.0849668 9.54797e-11 -4.61199e-31)
(0.0849668 -1.04411e-10 -1.32657e-31)
(0.0849668 -7.93371e-11 -9.19487e-31)
(0.0949885 6.28828e-11 2.86067e-31)
(0.0949886 5.99728e-11 5.57784e-31)
(0.0949886 -3.53925e-11 1.79694e-32)
(0.0949886 8.58825e-11 1.87365e-30)
(0.0949886 9.41298e-11 6.23081e-31)
(0.0949886 -1.22075e-10 -1.13079e-30)
(0.0949886 -5.92862e-11 2.71297e-31)
(0.0949886 4.22161e-11 -1.47503e-31)
(0.0949886 -3.98369e-11 2.70202e-31)
(0.0949886 -3.14004e-11 -5.13712e-31)
)
;

boundaryField
{
    top
    {
        type            fixedValue;
        value           uniform (0.1 0 0);
    }
    bottom
    {
        type            fixedValue;
        value           uniform (0 0 0);
    }
    inlet
    {
        type            zeroGradient;
    }
    outlet
    {
        type            zeroGradient;
    }
    frontAndBack
    {
        type            empty;
    }
}


// ************************************************************************* //
