/*--------------------------------*- C++ -*----------------------------------*\
| =========                 |                                                 |
| \\      /  F ield         | OpenFOAM: The Open Source CFD Toolbox           |
|  \\    /   O peration     | Version:  5.0                                   |
|   \\  /    A nd           | Web:      www.OpenFOAM.org                      |
|    \\/     M anipulation  |                                                 |
\*---------------------------------------------------------------------------*/
FoamFile
{
    version     2.0;
    format      ascii;
    class       surfaceScalarField;
    location    "258";
    object      phi;
}
// * * * * * * * * * * * * * * * * * * * * * * * * * * * * * * * * * * * * * //

dimensions      [0 3 -1 0 0 0 0];

internalField   nonuniform List<scalar> 
3052
(
1.58354e-22
-4.13936e-22
8.60517e-22
-7.0954e-22
2.12739e-21
-1.27395e-21
3.55746e-21
-1.43608e-21
5.17091e-21
-1.61889e-21
7.07808e-21
-1.91187e-21
9.12055e-21
-2.04674e-21
1.12663e-20
-2.14994e-21
1.35145e-20
-2.25216e-21
1.58233e-20
-2.31262e-21
1.81562e-20
-2.33652e-21
2.04924e-20
-2.33976e-21
2.28093e-20
-2.32022e-21
2.50808e-20
-2.27479e-21
2.7286e-20
-2.20841e-21
2.94063e-20
-2.12347e-21
3.14223e-20
-2.01895e-21
3.33185e-20
-1.89904e-21
3.50787e-20
-1.76293e-21
3.66907e-20
-1.61445e-21
3.81408e-20
-1.45225e-21
3.94207e-20
-1.28173e-21
4.0519e-20
-1.09988e-21
4.14261e-20
-9.08323e-22
4.21389e-20
-7.13761e-22
4.26606e-20
-5.22509e-22
4.29731e-20
-3.12927e-22
4.3074e-20
-1.01032e-22
4.29605e-20
1.13725e-22
4.26372e-20
3.23831e-22
4.21055e-20
5.32815e-22
4.13838e-20
7.23278e-22
4.04671e-20
9.18756e-22
3.93635e-20
1.10613e-21
3.8079e-20
1.28738e-21
3.66277e-20
1.45442e-21
3.50129e-20
1.61804e-21
3.32543e-20
1.76205e-21
3.13597e-20
1.89812e-21
2.93466e-20
2.01646e-21
2.72297e-20
2.12013e-21
2.50318e-20
2.20115e-21
2.27673e-20
2.26776e-21
2.04611e-20
2.30947e-21
1.81341e-20
2.33033e-21
1.58138e-20
2.32384e-21
1.3524e-20
2.2933e-21
1.12946e-20
2.233e-21
9.15457e-21
2.14408e-21
7.1373e-21
2.02049e-21
5.27765e-21
1.86319e-21
3.6212e-21
1.66084e-21
2.20945e-21
1.41475e-21
1.06573e-21
1.14758e-21
3.2184e-22
7.46703e-22
3.2224e-22
2.80388e-22
-7.01266e-22
9.58361e-22
-1.40901e-21
1.87039e-21
-2.20461e-21
3.17702e-21
-2.7595e-21
4.80248e-21
-3.25893e-21
6.51963e-21
-3.64235e-21
8.39788e-21
-3.93754e-21
1.04164e-20
-4.18027e-21
1.25064e-20
-4.35337e-21
1.46465e-20
-4.46356e-21
1.68205e-20
-4.52087e-21
1.89988e-20
-4.528e-21
2.11545e-20
-4.48561e-21
2.3269e-20
-4.39865e-21
2.5323e-20
-4.27153e-21
2.72966e-20
-4.10574e-21
2.9174e-20
-3.90459e-21
3.09391e-20
-3.67184e-21
3.25783e-20
-3.40928e-21
3.4078e-20
-3.12051e-21
3.54279e-20
-2.80778e-21
3.66165e-20
-2.47503e-21
3.76364e-20
-2.12367e-21
3.84833e-20
-1.75824e-21
3.91543e-20
-1.38705e-21
3.96376e-20
-1.00723e-21
3.99311e-20
-6.0712e-22
4.00263e-20
-1.95914e-22
3.99228e-20
2.18523e-22
3.96195e-20
6.29677e-22
3.91266e-20
1.0296e-21
3.8448e-20
1.40724e-21
3.75961e-20
1.77712e-21
3.65706e-20
2.13914e-21
3.53774e-20
2.48889e-21
3.40234e-20
2.81739e-21
3.25231e-20
3.12771e-21
3.08829e-20
3.41184e-21
2.91194e-20
3.67122e-21
2.72458e-20
3.89961e-21
2.52775e-20
4.09782e-21
2.32285e-20
4.25952e-21
2.11214e-20
4.38436e-21
1.89739e-20
4.46666e-21
1.68082e-20
4.50622e-21
1.4645e-20
4.49716e-21
1.25111e-20
4.43795e-21
1.04324e-20
4.32299e-21
8.43717e-21
4.14914e-21
6.55926e-21
3.90977e-21
4.82986e-21
3.60447e-21
3.28168e-21
3.218e-21
1.97064e-21
2.73815e-21
9.6793e-22
2.15859e-21
2.82351e-22
1.44205e-21
6.05074e-22
1.18066e-22
-8.25673e-22
7.7028e-22
-2.07392e-21
1.68963e-21
-3.13545e-21
2.90879e-21
-3.98863e-21
4.31138e-21
-4.67084e-21
5.91403e-21
-5.2535e-21
7.66457e-21
-5.69585e-21
9.52062e-21
-6.04366e-21
1.14553e-20
-6.29493e-21
1.34428e-20
-6.45747e-21
1.54562e-20
-6.54032e-21
1.74707e-20
-6.54837e-21
1.94682e-20
-6.48872e-21
2.14278e-20
-6.36368e-21
2.33297e-20
-6.17855e-21
2.51574e-20
-5.93819e-21
2.68962e-20
-5.6477e-21
2.853e-20
-5.3097e-21
3.00472e-20
-4.92995e-21
3.14356e-20
-4.512e-21
3.26856e-20
-4.06038e-21
3.37867e-20
-3.5784e-21
3.47328e-20
-3.07148e-21
3.55172e-20
-2.54395e-21
3.61321e-20
-2.00277e-21
3.657e-20
-1.44558e-21
3.6833e-20
-8.69977e-22
3.69179e-20
-2.80237e-22
3.68242e-20
3.13379e-22
3.65537e-20
9.01839e-22
3.61095e-20
1.47611e-21
3.5488e-20
2.03151e-21
3.46974e-20
2.57099e-21
3.37458e-20
3.09446e-21
3.26415e-20
3.59731e-21
3.13888e-20
4.07458e-21
2.99994e-20
4.52195e-21
2.84817e-20
4.93451e-21
2.68491e-20
5.30913e-21
2.51123e-20
5.64172e-21
2.32887e-20
5.92701e-21
2.13921e-20
6.16191e-21
1.94401e-20
6.34237e-21
1.74493e-20
6.46374e-21
1.54418e-20
6.52024e-21
1.34376e-20
6.50835e-21
1.14602e-20
6.42228e-21
9.53454e-21
6.25553e-21
7.68836e-21
6.00404e-21
5.94655e-21
5.65871e-21
4.35306e-21
5.20454e-21
2.94263e-21
4.63883e-21
1.7418e-21
3.94464e-21
8.13059e-22
3.0985e-21
2.14814e-22
2.04533e-21
8.2026e-22
1.72824e-22
-1.00054e-21
7.14113e-22
-2.62059e-21
1.50613e-21
-3.93212e-21
2.58125e-21
-5.06832e-21
3.88783e-21
-5.98163e-21
5.34104e-21
-6.71073e-21
6.93917e-21
-7.29769e-21
8.64295e-21
-7.75067e-21
1.0418e-20
-8.07274e-21
1.22416e-20
-8.28374e-21
1.40934e-20
-8.39453e-21
1.59489e-20
-8.40617e-21
1.77855e-20
-8.32749e-21
1.9587e-20
-8.16698e-21
2.13363e-20
-7.92955e-21
2.3018e-20
-7.6211e-21
2.46165e-20
-7.24729e-21
2.61199e-20
-6.81393e-21
2.75157e-20
-6.32634e-21
2.8793e-20
-5.78979e-21
2.9942e-20
-5.20971e-21
3.09551e-20
-4.59163e-21
3.18245e-20
-3.94107e-21
3.2544e-20
-3.26336e-21
3.31056e-20
-2.56424e-21
3.35054e-20
-1.84496e-21
3.37433e-20
-1.10747e-21
3.38207e-20
-3.57019e-22
3.37378e-20
3.96895e-22
3.34933e-20
1.1471e-21
3.30868e-20
1.88309e-21
3.25187e-20
2.6e-21
3.17946e-20
3.29536e-21
3.09201e-20
3.9693e-21
2.9903e-20
4.61482e-21
2.87503e-20
5.22793e-21
2.74716e-20
5.80156e-21
2.60751e-20
6.33217e-21
2.45727e-20
6.81296e-21
2.29766e-20
7.2398e-21
2.12987e-20
7.6073e-21
1.9553e-20
7.91026e-21
1.77564e-20
8.1419e-21
1.59257e-20
8.29771e-21
1.40784e-20
8.37115e-21
1.22345e-20
8.35586e-21
1.04164e-20
8.24443e-21
8.64636e-21
8.03061e-21
6.95071e-21
7.70339e-21
5.36259e-21
7.25197e-21
3.90465e-21
6.66942e-21
2.6066e-21
5.93994e-21
1.5338e-21
5.02545e-21
7.21726e-22
3.91429e-21
2.03277e-22
2.57099e-21
1.02384e-21
1.97752e-22
-1.1994e-21
6.04458e-22
-3.02779e-21
1.35494e-21
-4.68341e-21
2.30948e-21
-6.02398e-21
3.46568e-21
-7.13945e-21
4.78329e-21
-8.03007e-21
6.23094e-21
-8.747e-21
7.7736e-21
-9.29479e-21
9.38764e-21
-9.68809e-21
1.10509e-20
-9.94819e-21
1.27363e-20
-1.0081e-20
1.44248e-20
-1.00955e-20
1.60993e-20
-1.00027e-20
1.77421e-20
-9.81026e-21
1.93369e-20
-9.52461e-21
2.08699e-20
-9.15412e-21
2.23273e-20
-8.70466e-21
2.36976e-20
-8.18398e-21
2.49695e-20
-7.59788e-21
2.61336e-20
-6.95351e-21
2.71809e-20
-6.25659e-21
2.81039e-20
-5.51423e-21
2.88951e-20
-4.7319e-21
2.95492e-20
-3.91696e-21
3.00596e-20
-3.07414e-21
3.04238e-20
-2.20866e-21
3.06408e-20
-1.32379e-21
3.07113e-20
-4.2694e-22
3.06347e-20
4.74002e-22
3.04122e-20
1.36987e-21
3.00428e-20
2.25252e-21
2.9527e-20
3.1154e-21
2.88675e-20
3.95433e-21
2.80716e-20
4.76453e-21
2.71451e-20
5.5407e-21
2.60955e-20
6.27691e-21
2.49297e-20
6.967e-21
2.36575e-20
7.60424e-21
2.22875e-20
8.18325e-21
2.08313e-20
8.69688e-21
1.93009e-20
9.13892e-21
1.77102e-20
9.50256e-21
1.60718e-20
9.78224e-21
1.44022e-20
9.96954e-21
1.27181e-20
1.00576e-20
1.10382e-20
1.00387e-20
9.38163e-21
9.90407e-21
7.7728e-21
9.64209e-21
6.23488e-21
9.24572e-21
4.788e-21
8.70295e-21
3.47084e-21
7.98896e-21
2.32564e-21
7.0913e-21
1.35543e-21
5.99825e-21
6.14898e-22
4.66295e-21
1.49439e-22
3.03847e-21
1.17349e-21
1.24792e-22
-1.32329e-21
5.43587e-22
-3.44543e-21
1.18346e-21
-5.32257e-21
2.04014e-21
-6.88071e-21
3.06644e-21
-8.16634e-21
4.24372e-21
-9.20832e-21
5.53715e-21
-1.00416e-20
6.91941e-21
-1.06782e-20
8.36931e-21
-1.1139e-20
9.86365e-21
-1.14435e-20
1.13804e-20
-1.15985e-20
1.2902e-20
-1.16177e-20
1.44111e-20
-1.15123e-20
1.58914e-20
-1.12908e-20
1.73291e-20
-1.09624e-20
1.87106e-20
-1.05356e-20
2.00245e-20
-1.00184e-20
2.12594e-20
-9.41861e-21
2.24057e-20
-8.74397e-21
2.34543e-20
-8.00174e-21
2.43976e-20
-7.19962e-21
2.52284e-20
-6.34459e-21
2.59408e-20
-5.44398e-21
2.65291e-20
-4.50478e-21
2.6989e-20
-3.53364e-21
2.73173e-20
-2.53644e-21
2.75135e-20
-1.51941e-21
2.75769e-20
-4.898e-22
2.75078e-20
5.435e-22
2.73062e-20
1.57177e-21
2.69724e-20
2.58631e-21
2.65078e-20
3.57983e-21
2.59154e-20
4.54633e-21
2.51995e-20
5.47995e-21
2.43654e-20
6.37426e-21
2.34196e-20
7.22227e-21
2.23691e-20
8.01712e-21
2.12219e-20
8.75146e-21
1.99873e-20
9.41818e-21
1.86748e-20
1.00101e-20
1.72952e-20
1.05197e-20
1.586e-20
1.09393e-20
1.4383e-20
1.12611e-20
1.2878e-20
1.14766e-20
1.13607e-20
1.15774e-20
9.84808e-21
1.15538e-20
8.35942e-21
1.13954e-20
6.91245e-21
1.10926e-20
5.53012e-21
1.06307e-20
4.24417e-21
9.99195e-21
3.07147e-21
9.16658e-21
2.03145e-21
8.13316e-21
1.18438e-21
6.85031e-21
5.5364e-22
5.2945e-21
1.55316e-22
3.4418e-21
1.32897e-21
1.13079e-22
-1.43636e-21
4.7823e-22
-3.81009e-21
1.03557e-21
-5.87986e-21
1.78027e-21
-7.62575e-21
2.68025e-21
-9.06708e-21
3.71415e-21
-1.02433e-20
4.85371e-21
-1.11824e-20
6.07637e-21
-1.19023e-20
7.36065e-21
-1.24247e-20
8.68408e-21
-1.27682e-20
1.00294e-20
-1.2945e-20
1.138e-20
-1.29693e-20
1.27197e-20
-1.28528e-20
1.40347e-20
-1.26064e-20
1.5312e-20
-1.22402e-20
1.65396e-20
-1.17636e-20
1.7707e-20
-1.1186e-20
1.88042e-20
-1.05161e-20
1.98226e-20
-9.76254e-21
2.07543e-20
-8.93349e-21
2.15922e-20
-8.03745e-21
2.23299e-20
-7.08234e-21
2.29623e-20
-6.07625e-21
2.34844e-20
-5.02669e-21
2.38926e-20
-3.94157e-21
2.41843e-20
-2.82784e-21
2.43585e-20
-1.69333e-21
2.44152e-20
-5.46085e-22
2.4354e-20
6.05138e-22
2.4175e-20
1.75119e-21
2.38785e-20
2.88309e-21
2.34659e-20
3.99272e-21
2.29397e-20
5.07284e-21
2.23036e-20
6.11622e-21
2.15625e-20
7.11556e-21
2.0722e-20
8.0631e-21
1.97885e-20
8.95106e-21
1.8769e-20
9.77163e-21
1.76715e-20
1.05166e-20
1.65049e-20
1.1178e-20
1.52787e-20
1.17474e-20
1.40036e-20
1.22161e-20
1.26916e-20
1.25752e-20
1.1355e-20
1.28153e-20
1.00082e-20
1.29265e-20
8.6662e-21
1.28984e-20
7.34515e-21
1.27193e-20
6.06511e-21
1.2375e-20
4.84687e-21
1.18523e-20
3.70497e-21
1.11374e-20
2.66997e-21
1.02033e-20
1.77892e-21
9.02779e-21
1.03342e-21
7.59719e-21
4.64928e-22
5.86866e-21
1.14464e-22
3.79222e-21
1.44352e-21
1.11955e-22
-1.54814e-21
4.07009e-22
-4.10606e-21
8.87174e-22
-6.36076e-21
1.52482e-21
-8.26425e-21
2.30251e-21
-9.84586e-21
3.19721e-21
-1.11394e-20
4.18402e-21
-1.21708e-20
5.24435e-21
-1.29643e-20
6.3599e-21
-1.3542e-20
7.51117e-21
-1.39211e-20
8.68263e-21
-1.41179e-20
9.85895e-21
-1.41469e-20
1.10266e-20
-1.40215e-20
1.21729e-20
-1.37537e-20
1.32865e-20
-1.33546e-20
1.43571e-20
-1.28348e-20
1.53752e-20
-1.22047e-20
1.63323e-20
-1.14736e-20
1.72204e-20
-1.06511e-20
1.80329e-20
-9.74629e-21
1.87635e-20
-8.7683e-21
1.94067e-20
-7.72572e-21
1.99577e-20
-6.62739e-21
2.04127e-20
-5.48176e-21
2.07685e-20
-4.29738e-21
2.10232e-20
-3.08239e-21
2.11754e-20
-1.8453e-21
2.12246e-20
-5.94912e-22
2.11708e-20
6.5937e-22
2.10143e-20
1.90829e-21
2.07554e-20
3.14258e-21
2.03954e-20
4.3534e-21
1.99366e-20
5.53245e-21
1.93821e-20
6.67153e-21
1.87361e-20
7.76248e-21
1.80033e-20
8.79684e-21
1.71892e-20
9.76613e-21
1.63001e-20
1.06619e-20
1.53428e-20
1.14752e-20
1.4325e-20
1.21972e-20
1.32554e-20
1.28186e-20
1.21433e-20
1.333e-20
1.0999e-20
1.37214e-20
9.83384e-21
1.39826e-20
8.66e-21
1.41027e-20
7.49136e-21
1.40695e-20
6.34331e-21
1.38697e-20
5.23079e-21
1.34905e-20
4.17071e-21
1.29148e-20
3.18843e-21
1.21218e-20
2.29927e-21
1.10957e-20
1.51466e-21
9.81385e-21
8.77323e-22
8.23707e-21
4.07203e-22
6.33767e-21
1.10536e-22
4.09204e-21
1.55412e-21
9.1389e-23
-1.64033e-21
3.39795e-22
-4.35551e-21
7.43091e-22
-6.76511e-21
1.28062e-21
-8.80285e-21
1.93661e-21
-1.0503e-20
2.69053e-21
-1.18946e-20
3.52477e-21
-1.30065e-20
4.42291e-21
-1.38639e-20
5.368e-21
-1.44885e-20
6.34478e-21
-1.48992e-20
7.33981e-21
-1.51141e-20
8.33973e-21
-1.51478e-20
9.33256e-21
-1.50152e-20
1.03075e-20
-1.47294e-20
1.12549e-20
-1.43027e-20
1.21659e-20
-1.37464e-20
1.30321e-20
-1.30714e-20
1.38463e-20
-1.22882e-20
1.46019e-20
-1.14071e-20
1.52931e-20
-1.04378e-20
1.59144e-20
-9.38986e-21
1.64614e-20
-8.2729e-21
1.693e-20
-7.09618e-21
1.73171e-20
-5.869e-21
1.76199e-20
-4.60022e-21
1.78366e-20
-3.29906e-21
1.79661e-20
-1.97461e-21
1.80079e-20
-6.36358e-22
1.79618e-20
7.05913e-22
1.78281e-20
2.04257e-21
1.76075e-20
3.36381e-21
1.73011e-20
4.66052e-21
1.69107e-20
5.92365e-21
1.6439e-20
7.14409e-21
1.58895e-20
8.31294e-21
1.5266e-20
9.42128e-21
1.45732e-20
1.046e-20
1.38165e-20
1.14197e-20
1.30018e-20
1.22911e-20
1.21357e-20
1.30646e-20
1.12254e-20
1.37303e-20
1.02791e-20
1.42778e-20
9.30557e-21
1.46966e-20
8.31475e-21
1.49752e-20
7.31731e-21
1.51019e-20
6.32483e-21
1.50639e-20
5.34987e-21
1.48469e-20
4.40706e-21
1.4435e-20
3.51245e-21
1.38113e-20
2.67858e-21
1.29582e-20
1.92435e-21
1.1851e-20
1.27653e-21
1.0463e-20
7.41006e-22
8.77319e-21
3.34199e-22
6.74814e-21
8.2248e-23
4.34271e-21
1.63639e-21
7.02141e-23
-1.71058e-21
2.75308e-22
-4.56189e-21
6.03833e-22
-7.09471e-21
1.04233e-21
-9.24228e-21
1.5763e-21
-1.10379e-20
2.19113e-21
-1.25103e-20
2.87355e-21
-1.36898e-20
3.60919e-21
-1.46005e-20
4.38392e-21
-1.52641e-20
5.18553e-21
-1.57017e-20
6.00213e-21
-1.59315e-20
6.82309e-21
-1.59695e-20
7.63862e-21
-1.58314e-20
8.4399e-21
-1.55312e-20
9.21858e-21
-1.50819e-20
9.96736e-21
-1.44955e-20
1.06794e-20
-1.37837e-20
1.13488e-20
-1.29579e-20
1.197e-20
-1.20284e-20
1.2538e-20
-1.1006e-20
1.30487e-20
-9.90066e-21
1.34983e-20
-8.72268e-21
1.38834e-20
-7.48145e-21
1.42014e-20
-6.18704e-21
1.445e-20
-4.84893e-21
1.46281e-20
-3.477e-21
1.47345e-20
-2.08082e-21
1.47689e-20
-6.70486e-22
1.47311e-20
7.44159e-22
1.46211e-20
2.153e-21
1.44394e-20
3.54602e-21
1.41871e-20
4.91336e-21
1.3866e-20
6.2454e-21
1.3478e-20
7.53269e-21
1.3026e-20
8.76569e-21
1.25132e-20
9.93489e-21
1.19435e-20
1.10305e-20
1.13212e-20
1.20429e-20
1.06512e-20
1.29621e-20
9.93898e-21
1.37778e-20
9.19055e-21
1.44797e-20
8.41262e-21
1.50568e-20
7.61262e-21
1.54977e-20
6.79869e-21
1.57904e-20
5.97951e-21
1.59225e-20
5.16497e-21
1.58799e-20
4.36603e-21
1.56472e-20
3.59373e-21
1.52089e-20
2.8598e-21
1.45469e-20
2.17979e-21
1.36388e-20
1.56876e-21
1.24635e-20
1.03365e-21
1.09992e-20
5.96822e-22
9.21071e-21
2.74539e-22
7.06835e-21
7.37864e-23
4.54555e-21
1.71018e-21
5.59586e-23
-1.76725e-21
2.13874e-22
-4.72039e-21
4.67221e-22
-7.34868e-21
8.06548e-22
-9.58219e-21
1.22074e-21
-1.14526e-20
1.69944e-21
-1.29895e-20
2.23083e-21
-1.42217e-20
2.80339e-21
-1.51736e-20
3.40679e-21
-1.58681e-20
4.03155e-21
-1.63269e-20
4.66849e-21
-1.65688e-20
5.30892e-21
-1.66103e-20
5.94519e-21
-1.6468e-20
6.57064e-21
-1.6157e-20
7.17864e-21
-1.56901e-20
7.7632e-21
-1.50803e-20
8.31915e-21
-1.43398e-20
8.8417e-21
-1.34805e-20
9.32668e-21
-1.25135e-20
9.77019e-21
-1.14496e-20
1.01689e-20
-1.02994e-20
1.05197e-20
-9.07344e-21
1.08202e-20
-7.782e-21
1.10684e-20
-6.43523e-21
1.12627e-20
-5.04318e-21
1.14018e-20
-3.61594e-21
1.14849e-20
-2.16367e-21
1.15114e-20
-6.96702e-22
1.14813e-20
7.74516e-22
1.13951e-20
2.23953e-21
1.1253e-20
3.68841e-21
1.10559e-20
5.11087e-21
1.08048e-20
6.49686e-21
1.05016e-20
7.83637e-21
1.01484e-20
9.11939e-21
9.74785e-21
1.0336e-20
9.30284e-21
1.14761e-20
8.81678e-21
1.25296e-20
8.29349e-21
1.34861e-20
7.73723e-21
1.43348e-20
7.15276e-21
1.5065e-20
6.54532e-21
1.56651e-20
5.92074e-21
1.61232e-20
5.2856e-21
1.64265e-20
4.64688e-21
1.65622e-20
4.01186e-21
1.65159e-20
3.38907e-21
1.62712e-20
2.7874e-21
1.58114e-20
2.21797e-21
1.51167e-20
1.69009e-21
1.41682e-20
1.21167e-21
1.29422e-20
8.00078e-22
1.14102e-20
4.64868e-22
9.5461e-21
2.11797e-22
7.32367e-21
5.36494e-23
4.70163e-21
1.7638e-21
3.94882e-23
-1.80646e-21
1.51981e-22
-4.83327e-21
3.32944e-22
-7.52987e-21
5.75502e-22
-9.82492e-21
8.71822e-22
-1.1749e-20
1.21409e-21
-1.33319e-20
1.59375e-21
-1.46015e-20
2.00314e-21
-1.55831e-20
2.4352e-21
-1.63003e-20
2.88233e-21
-1.67741e-20
3.3383e-21
-1.70249e-20
3.79671e-21
-1.70687e-20
4.25263e-21
-1.69239e-20
4.70072e-21
-1.66051e-20
5.13625e-21
-1.61256e-20
5.55495e-21
-1.54989e-20
5.95326e-21
-1.47381e-20
6.32754e-21
-1.38547e-20
6.67492e-21
-1.28608e-20
6.99246e-21
-1.1767e-20
7.27798e-21
-1.05849e-20
7.52926e-21
-9.32462e-21
7.74462e-21
-7.99722e-21
7.92233e-21
-6.61274e-21
8.06133e-21
-5.18194e-21
8.16062e-21
-3.71499e-21
8.21991e-21
-2.22275e-21
8.23882e-21
-7.15452e-22
8.21723e-21
7.96242e-22
8.15501e-21
2.30189e-21
8.05269e-21
3.79089e-21
7.91098e-21
5.2528e-21
7.73083e-21
6.67725e-21
7.51344e-21
8.05404e-21
7.26016e-21
9.373e-21
6.97295e-21
1.06236e-20
6.65383e-21
1.17957e-20
6.30539e-21
1.28785e-20
5.93029e-21
1.38616e-20
5.53163e-21
1.4734e-20
5.11282e-21
1.54843e-20
4.67757e-21
1.61008e-20
4.23005e-21
1.65712e-20
3.77515e-21
1.68819e-20
3.31808e-21
1.70199e-20
2.86348e-21
1.69712e-20
2.41832e-21
1.67167e-20
1.98898e-21
1.62413e-20
1.58119e-21
1.55253e-20
1.20273e-21
1.4546e-20
8.65186e-22
1.32798e-20
5.73034e-22
1.17032e-20
3.29255e-22
9.78902e-21
1.48274e-22
7.50192e-21
3.63592e-23
4.81469e-21
1.80012e-21
2.39172e-23
-1.83076e-21
9.17917e-23
-4.9007e-21
2.0121e-22
-7.63903e-21
3.47467e-22
-9.97088e-21
5.26173e-22
-1.19274e-20
7.32159e-22
-1.35376e-20
9.60551e-22
-1.48296e-20
1.2069e-21
-1.58292e-20
1.46717e-21
-1.65603e-20
1.73705e-21
-1.70438e-20
2.01033e-21
-1.7298e-20
2.28579e-21
-1.7344e-20
2.56078e-21
-1.71987e-20
2.83064e-21
-1.68747e-20
3.0923e-21
-1.63871e-20
3.3439e-21
-1.57504e-20
3.58324e-21
-1.49772e-20
3.80826e-21
-1.40796e-20
4.01701e-21
-1.30693e-20
4.20796e-21
-1.19578e-20
4.3795e-21
-1.07562e-20
4.53052e-21
-9.47534e-21
4.65968e-21
-8.12603e-21
4.76634e-21
-6.719e-21
4.84971e-21
-5.26494e-21
4.90936e-21
-3.77438e-21
4.94472e-21
-2.25797e-21
4.95565e-21
-7.26339e-22
4.94215e-21
8.09724e-22
4.9044e-21
2.33963e-21
4.84261e-21
3.85269e-21
4.75708e-21
5.33838e-21
4.64826e-21
6.78614e-21
4.51701e-21
8.18542e-21
4.36429e-21
9.52587e-21
4.19119e-21
1.07969e-20
3.99898e-21
1.19881e-20
3.7891e-21
1.30886e-20
3.56328e-21
1.40877e-20
3.32344e-21
1.4974e-20
3.07159e-21
1.57364e-20
2.80998e-21
1.63627e-20
2.54065e-21
1.68408e-20
2.26645e-21
1.71565e-20
1.99162e-21
1.7295e-20
1.7198e-21
1.72432e-20
1.4518e-21
1.69852e-20
1.19279e-21
1.65003e-20
9.48967e-22
1.57684e-20
7.25204e-22
1.47704e-20
5.1938e-22
1.34852e-20
3.39751e-22
1.18807e-20
1.99285e-22
9.9293e-21
9.44868e-23
7.60763e-21
2.63175e-23
4.88021e-21
1.82636e-21
8.46156e-24
-1.83861e-21
3.20672e-23
-4.92379e-21
7.03923e-23
-7.67662e-21
1.2104e-22
-1.00208e-20
1.82175e-22
-1.19878e-20
2.52372e-22
-1.3607e-20
3.29803e-22
-1.49064e-20
4.12836e-22
-1.59116e-20
4.99493e-22
-1.66464e-20
5.89166e-22
-1.71329e-20
6.82337e-22
-1.73906e-20
7.7907e-22
-1.74403e-20
8.71687e-22
-1.72909e-20
9.6002e-22
-1.69627e-20
1.0467e-21
-1.64734e-20
1.1306e-21
-1.58339e-20
1.21042e-21
-1.50567e-20
1.28544e-21
-1.41543e-20
1.35502e-21
-1.31386e-20
1.41868e-21
-1.20211e-20
1.47578e-21
-1.08129e-20
1.52601e-21
-9.52513e-21
1.56906e-21
-8.16857e-21
1.60464e-21
-6.7541e-21
1.63222e-21
-5.29212e-21
1.65174e-21
-3.79366e-21
1.66302e-21
-2.26916e-21
1.66612e-21
-7.29478e-22
1.66095e-21
8.14804e-22
1.64761e-21
2.35285e-21
1.62621e-21
3.87401e-21
1.5969e-21
5.36761e-21
1.55992e-21
6.82309e-21
1.51539e-21
8.22992e-21
1.46379e-21
9.57748e-21
1.40525e-21
1.08554e-20
1.34048e-21
1.20529e-20
1.26982e-21
1.31593e-20
1.19395e-21
1.41636e-20
1.11348e-21
1.50545e-20
1.02924e-21
1.58206e-20
9.42378e-22
1.64496e-20
8.54271e-22
1.6929e-20
7.62108e-22
1.72486e-20
6.65988e-22
1.73911e-20
5.73885e-22
1.73353e-20
4.85566e-22
1.7073e-20
4.01602e-22
1.65839e-20
3.20337e-22
1.58499e-20
2.41667e-22
1.48475e-20
1.76008e-22
1.35498e-20
1.22025e-22
1.19351e-20
6.83307e-23
9.98066e-21
2.62965e-23
7.64643e-21
2.2609e-24
4.90445e-21
1.82853e-21
-5.63205e-24
-1.83309e-21
-2.62113e-23
-4.90167e-21
-5.95265e-23
-7.64204e-21
-1.04985e-22
-9.97408e-21
-1.60923e-22
-1.19306e-20
-2.2627e-22
-1.35405e-20
-2.99566e-22
-1.48319e-20
-3.78894e-22
-1.58312e-20
-4.62577e-22
-1.65617e-20
-5.49899e-22
-1.70447e-20
-6.41117e-22
-1.72986e-20
-7.36252e-22
-1.73443e-20
-8.27651e-22
-1.71988e-20
-9.15036e-22
-1.68746e-20
-1.00105e-21
-1.63867e-20
-1.08444e-21
-1.575e-20
-1.16401e-21
-1.49766e-20
-1.23892e-21
-1.40789e-20
-1.30859e-21
-1.30684e-20
-1.3725e-21
-1.19567e-20
-1.42991e-21
-1.0755e-20
-1.48046e-21
-9.47405e-21
-1.52383e-21
-8.12469e-21
-1.55988e-21
-6.71759e-21
-1.58824e-21
-5.26341e-21
-1.60889e-21
-3.7728e-21
-1.6216e-21
-2.25636e-21
-1.62634e-21
-7.24742e-22
-1.62302e-21
8.11426e-22
-1.61173e-21
2.34147e-21
-1.59249e-21
3.85466e-21
-1.56538e-21
5.34038e-21
-1.53046e-21
6.78804e-21
-1.48809e-21
8.18742e-21
-1.43856e-21
9.52781e-21
-1.38221e-21
1.07989e-20
-1.31942e-21
1.19899e-20
-1.25067e-21
1.30904e-20
-1.17649e-21
1.40892e-20
-1.09764e-21
1.49755e-20
-1.01472e-21
1.57375e-20
-9.29018e-22
1.63636e-20
-8.41733e-22
1.68414e-20
-7.50158e-22
1.71567e-20
-6.54384e-22
1.72948e-20
-5.62435e-22
1.72427e-20
-4.73942e-22
1.69844e-20
-3.90134e-22
1.64993e-20
-3.09111e-22
1.57669e-20
-2.29983e-22
1.47683e-20
-1.64872e-22
1.34836e-20
-1.14214e-22
1.18808e-20
-6.16161e-23
9.92751e-21
-2.17691e-23
7.60606e-21
-1.79399e-24
4.88126e-21
1.82661e-21
-2.34311e-23
-1.80865e-21
-8.621e-23
-4.8372e-21
-1.9024e-22
-7.53607e-21
-3.31153e-22
-9.8313e-21
-5.04724e-22
-1.17553e-20
-7.06221e-22
-1.33373e-20
-9.30799e-22
-1.46057e-20
-1.17387e-21
-1.55866e-20
-1.43141e-21
-1.63028e-20
-1.69902e-21
-1.67758e-20
-1.97042e-21
-1.7026e-20
-2.24451e-21
-1.70691e-20
-2.51836e-21
-1.69239e-20
-2.78727e-21
-1.66047e-20
-3.04822e-21
-1.61249e-20
-3.29933e-21
-1.5498e-20
-3.53839e-21
-1.47368e-20
-3.76323e-21
-1.38533e-20
-3.97199e-21
-1.2859e-20
-4.16287e-21
-1.17652e-20
-4.33465e-21
-1.05826e-20
-4.48602e-21
-9.3221e-21
-4.61599e-21
-7.99425e-21
-4.72344e-21
-6.6097e-21
-4.80779e-21
-5.17878e-21
-4.86838e-21
-3.71195e-21
-4.90506e-21
-2.21955e-21
-4.91749e-21
-7.12194e-22
-4.9058e-21
7.99704e-22
-4.86971e-21
2.30534e-21
-4.80972e-21
3.7945e-21
-4.72602e-21
5.25655e-21
-4.61949e-21
6.68127e-21
-4.49036e-21
8.05812e-21
-4.33989e-21
9.37706e-21
-4.16866e-21
1.06275e-20
-3.97849e-21
1.17994e-20
-3.77042e-21
1.2882e-20
-3.54639e-21
1.38647e-20
-3.30796e-21
1.47366e-20
-3.05754e-21
1.54865e-20
-2.79698e-21
1.61024e-20
-2.5286e-21
1.65723e-20
-2.25491e-21
1.68822e-20
-1.98046e-21
1.70195e-20
-1.70875e-21
1.69703e-20
-1.44096e-21
1.6715e-20
-1.18122e-21
1.62383e-20
-9.37085e-22
1.55226e-20
-7.15916e-22
1.45443e-20
-5.10399e-22
1.32758e-20
-3.2744e-22
1.1698e-20
-1.91639e-22
9.78767e-21
-9.42167e-23
7.50473e-21
-2.95186e-23
4.81557e-21
1.79694e-21
-3.60284e-23
-1.77231e-21
-1.45046e-22
-4.72514e-21
-3.21406e-22
-7.35696e-21
-5.59492e-22
-9.5906e-21
-8.51184e-22
-1.14611e-20
-1.189e-21
-1.29971e-20
-1.5652e-21
-1.42274e-20
-1.97194e-21
-1.51779e-20
-2.40151e-21
-1.58713e-20
-2.84679e-21
-1.63288e-20
-3.30125e-21
-1.65699e-20
-3.75839e-21
-1.66105e-20
-4.21314e-21
-1.64677e-20
-4.66056e-21
-1.6156e-20
-5.09537e-21
-1.56888e-20
-5.51374e-21
-1.50785e-20
-5.91153e-21
-1.43378e-20
-6.28579e-21
-1.34781e-20
-6.63294e-21
-1.25108e-20
-6.95085e-21
-1.14465e-20
-7.23644e-21
-1.02961e-20
-7.48812e-21
-9.06986e-21
-7.70361e-21
-7.77814e-21
-7.88211e-21
-6.43088e-21
-8.02185e-21
-5.03861e-21
-8.12251e-21
-3.61113e-21
-8.18279e-21
-2.15898e-21
-8.20299e-21
-6.91973e-22
-8.18249e-21
7.79338e-22
-8.12224e-21
2.24493e-21
-8.0218e-21
3.69404e-21
-7.88228e-21
5.11676e-21
-7.7039e-21
6.5028e-21
-7.48848e-21
7.84235e-21
-7.23695e-21
9.12534e-21
-6.95182e-21
1.03419e-20
-6.63447e-21
1.14817e-20
-6.28788e-21
1.25347e-20
-5.91423e-21
1.34905e-20
-5.51714e-21
1.43386e-20
-5.09949e-21
1.5068e-20
-4.66542e-21
1.56672e-20
-4.21866e-21
1.61244e-20
-3.76445e-21
1.64267e-20
-3.3077e-21
1.65614e-20
-2.85314e-21
1.65138e-20
-2.40745e-21
1.62683e-20
-1.97908e-21
1.58085e-20
-1.572e-21
1.51121e-20
-1.18932e-21
1.41609e-20
-8.53522e-22
1.29383e-20
-5.70461e-22
1.14093e-20
-3.24515e-22
9.54036e-21
-1.3907e-22
7.31675e-21
-3.08587e-23
4.70317e-21
1.76587e-21
-5.51156e-23
-1.71565e-21
-2.06976e-22
-4.56984e-21
-4.55619e-22
-7.10486e-21
-7.90432e-22
-9.25243e-21
-1.20133e-21
-1.10471e-20
-1.67639e-21
-1.25192e-20
-2.20467e-21
-1.36965e-20
-2.77498e-21
-1.46051e-20
-3.37672e-21
-1.52674e-20
-3.99989e-21
-1.57036e-20
-4.63562e-21
-1.59323e-20
-5.27493e-21
-1.59694e-20
-5.91052e-21
-1.58305e-20
-6.53521e-21
-1.55297e-20
-7.14262e-21
-1.508e-20
-7.7267e-21
-1.4493e-20
-8.28232e-21
-1.3781e-20
-8.80461e-21
-1.29546e-20
-9.28944e-21
-1.2025e-20
-9.73289e-21
-1.10021e-20
-1.01317e-20
-9.89666e-21
-1.0483e-20
-8.7179e-21
-1.0784e-20
-7.47672e-21
-1.10327e-20
-6.1817e-21
-1.12274e-20
-4.84373e-21
-1.13671e-20
-3.47113e-21
-1.1451e-20
-2.07502e-21
-1.1479e-20
-6.63845e-22
-1.14504e-20
7.50654e-22
-1.13657e-20
2.16019e-21
-1.12248e-20
3.55305e-21
-1.10294e-20
4.92121e-21
-1.078e-20
6.25314e-21
-1.04788e-20
7.54105e-21
-1.01273e-20
8.77351e-21
-9.72873e-21
9.94291e-21
-9.28519e-21
1.10376e-20
-8.8009e-21
1.20498e-20
-8.27895e-21
1.29677e-20
-7.72423e-21
1.37829e-20
-7.14075e-21
1.44832e-20
-6.53447e-21
1.50596e-20
-5.91047e-21
1.54989e-20
-5.276e-21
1.57906e-20
-4.63733e-21
1.59209e-20
-4.0028e-21
1.58778e-20
-3.38027e-21
1.56434e-20
-2.77737e-21
1.52029e-20
-2.20659e-21
1.45408e-20
-1.68496e-21
1.36354e-20
-1.2066e-21
1.24557e-20
-7.8365e-22
1.09861e-20
-4.5678e-22
9.20749e-21
-2.17975e-22
7.07298e-21
-6.45032e-23
4.54734e-21
1.70116e-21
-6.87347e-23
-1.64601e-21
-2.68325e-22
-4.36593e-21
-5.91204e-22
-6.77785e-21
-1.02583e-21
-8.8141e-21
-1.55729e-21
-1.05122e-20
-2.1704e-21
-1.1903e-20
-2.85123e-21
-1.30129e-20
-3.58511e-21
-1.38687e-20
-4.35874e-21
-1.44915e-20
-5.15909e-21
-1.49011e-20
-5.97518e-21
-1.51144e-20
-6.79521e-21
-1.51476e-20
-7.6103e-21
-1.50139e-20
-8.41054e-21
-1.4728e-20
-9.18918e-21
-1.43001e-20
-9.93706e-21
-1.37439e-20
-1.06493e-20
-1.30679e-20
-1.13178e-20
-1.22851e-20
-1.19394e-20
-1.14028e-20
-1.25067e-20
-1.0434e-20
-1.30181e-20
-9.38489e-21
-1.34669e-20
-8.26852e-21
-1.38532e-20
-7.09048e-21
-1.41708e-20
-5.86376e-21
-1.44212e-20
-4.59355e-21
-1.4599e-20
-3.29302e-21
-1.47072e-20
-1.96715e-21
-1.47412e-20
-6.29711e-22
-1.47051e-20
7.14171e-22
-1.4595e-20
2.05019e-21
-1.44157e-20
3.37332e-21
-1.41637e-20
4.66951e-21
-1.38452e-20
5.93423e-21
-1.34577e-20
7.15378e-21
-1.30084e-20
8.32378e-21
-1.24961e-20
9.43059e-21
-1.19291e-20
1.04698e-20
-1.13072e-20
1.14276e-20
-1.06395e-20
1.2299e-20
-9.92749e-21
1.30702e-20
-9.18104e-21
1.37354e-20
-8.40301e-21
1.42805e-20
-7.60438e-21
1.46986e-20
-6.79012e-21
1.49751e-20
-5.97206e-21
1.51012e-20
-5.15665e-21
1.50605e-20
-4.35751e-21
1.48425e-20
-3.58624e-21
1.44307e-20
-2.85423e-21
1.38046e-20
-2.16674e-21
1.2946e-20
-1.55617e-21
1.1844e-20
-1.03965e-21
1.04624e-20
-5.96282e-22
8.76236e-21
-2.60171e-22
6.73331e-21
-6.13154e-23
4.34404e-21
1.63964e-21
-8.71463e-23
-1.55705e-21
-3.32751e-22
-4.11591e-21
-7.32492e-22
-6.374e-21
-1.26668e-21
-8.27612e-21
-1.91976e-21
-9.85563e-21
-2.67276e-21
-1.11469e-20
-3.50653e-21
-1.21761e-20
-4.40435e-21
-1.29683e-20
-5.34907e-21
-1.35443e-20
-6.32597e-21
-1.39221e-20
-7.32019e-21
-1.4118e-20
-8.31978e-21
-1.41464e-20
-9.31184e-21
-1.40201e-20
-1.02868e-20
-1.37518e-20
-1.12334e-20
-1.33521e-20
-1.21442e-20
-1.28323e-20
-1.30096e-20
-1.22013e-20
-1.38241e-20
-1.14702e-20
-1.4579e-20
-1.0647e-20
-1.52705e-20
-9.74239e-21
-1.58912e-20
-8.76345e-21
-1.64388e-20
-7.7212e-21
-1.6907e-20
-6.62178e-21
-1.72947e-20
-5.47658e-21
-1.75971e-20
-4.29075e-21
-1.78146e-20
-3.07616e-21
-1.7944e-20
-1.83739e-21
-1.7987e-20
-5.8747e-22
-1.79411e-20
6.68708e-22
-1.78088e-20
1.91719e-21
-1.75886e-20
3.15352e-21
-1.72837e-20
4.36383e-21
-1.68939e-20
5.54476e-21
-1.64237e-20
6.68268e-21
-1.58749e-20
7.77495e-21
-1.5253e-20
8.80761e-21
-1.45612e-20
9.77781e-21
-1.3806e-20
1.0671e-20
-1.2992e-20
1.14846e-20
-1.2127e-20
1.22037e-20
-1.12172e-20
1.2825e-20
-1.02718e-20
1.33335e-20
-9.29876e-21
1.37248e-20
-8.3083e-21
1.3983e-20
-7.31059e-21
1.41023e-20
-6.3183e-21
1.40667e-20
-5.3442e-21
1.38671e-20
-4.3992e-21
1.34826e-20
-3.50252e-21
1.29072e-20
-2.6778e-21
1.21185e-20
-1.92621e-21
1.10868e-20
-1.25731e-21
9.79375e-21
-7.3229e-22
8.23178e-21
-3.47577e-22
6.34391e-21
-1.00821e-22
4.09571e-21
1.53868e-21
-1.04532e-22
-1.45146e-21
-3.99525e-22
-3.81653e-21
-8.77296e-22
-5.89237e-21
-1.5155e-21
-7.63423e-21
-2.29262e-21
-9.07512e-21
-3.18594e-21
-1.02502e-20
-4.17309e-21
-1.11859e-20
-5.23439e-21
-1.1904e-20
-6.34929e-21
-1.24267e-20
-7.501e-21
-1.27678e-20
-8.67197e-21
-1.29447e-20
-9.84875e-21
-1.29674e-20
-1.10153e-20
-1.28517e-20
-1.21619e-20
-1.26034e-20
-1.32743e-20
-1.22384e-20
-1.43458e-20
-1.17596e-20
-1.53621e-20
-1.11841e-20
-1.63201e-20
-1.05114e-20
-1.72063e-20
-9.76032e-21
-1.80202e-20
-8.92795e-21
-1.87485e-20
-8.03496e-21
-1.93935e-20
-7.07598e-21
-1.99421e-20
-6.07322e-21
-2.03994e-20
-5.01927e-21
-2.07526e-20
-3.93771e-21
-2.10097e-20
-2.81906e-21
-2.11591e-20
-1.6882e-21
-2.12113e-20
-5.35379e-22
-2.11547e-20
6.11772e-22
-2.10014e-20
1.76354e-21
-2.07398e-20
2.8912e-21
-2.03836e-20
4.00673e-21
-1.99225e-20
5.08227e-21
-1.93724e-20
6.13117e-21
-1.87244e-20
7.12519e-21
-1.79959e-20
8.07748e-21
-1.71795e-20
8.95963e-21
-1.62943e-20
9.78444e-21
-1.53348e-20
1.05236e-20
-1.43207e-20
1.11884e-20
-1.32485e-20
1.17518e-20
-1.21393e-20
1.22234e-20
-1.09925e-20
1.25769e-20
-9.8298e-21
1.28194e-20
-8.65424e-21
1.29258e-20
-7.48765e-21
1.28988e-20
-6.33629e-21
1.27142e-20
-5.22765e-21
1.23733e-20
-4.16957e-21
1.18464e-20
-3.17836e-21
1.11245e-20
-2.28611e-21
1.01946e-20
-1.52821e-21
9.0304e-21
-8.84843e-22
7.58726e-21
-3.90317e-22
5.84838e-21
-9.04218e-23
3.79277e-21
1.44821e-21
-1.19869e-22
-1.32984e-21
-4.69738e-22
-3.46287e-21
-1.02801e-21
-5.33011e-21
-1.77321e-21
-6.88523e-21
-2.6757e-21
-8.16884e-21
-3.71114e-21
-9.21098e-21
-4.85302e-21
-1.00402e-20
-6.0762e-21
-1.06772e-20
-7.36078e-21
-1.11386e-20
-8.6844e-21
-1.14408e-20
-1.00306e-20
-1.15954e-20
-1.138e-20
-1.16151e-20
-1.27205e-20
-1.15087e-20
-1.40341e-20
-1.12874e-20
-1.5312e-20
-1.09586e-20
-1.65377e-20
-1.0532e-20
-1.77062e-20
-1.00143e-20
-1.88013e-20
-9.41484e-21
-1.98213e-20
-8.73962e-21
-2.07503e-20