/*--------------------------------*- C++ -*----------------------------------*\
| =========                 |                                                 |
| \\      /  F ield         | OpenFOAM: The Open Source CFD Toolbox           |
|  \\    /   O peration     | Version:  5.0                                   |
|   \\  /    A nd           | Web:      www.OpenFOAM.org                      |
|    \\/     M anipulation  |                                                 |
\*---------------------------------------------------------------------------*/
FoamFile
{
    version     2.0;
    format      ascii;
    class       volVectorField;
    location    "3.5";
    object      U;
}
// * * * * * * * * * * * * * * * * * * * * * * * * * * * * * * * * * * * * * //

dimensions      [0 1 -1 0 0 0 0];

internalField   nonuniform List<vector> 
50
(
(0.986276 0.00422366 6.14975e-23)
(0.985385 -7.57726e-06 -4.39737e-23)
(0.984007 1.69708e-06 -4.61725e-23)
(0.985873 5.92053e-05 -4.61322e-23)
(0.981194 -0.00205176 3.29814e-23)
(0.985368 0.00241454 9.08005e-23)
(0.939611 0.000871304 1.29201e-23)
(0.937442 0.000170077 -4.53926e-23)
(0.936087 0.00010258 5.20767e-24)
(0.932831 -0.00212485 8.52218e-24)
(0.786148 0.00347633 -8.95567e-37)
(0.789623 -3.97341e-05 4.68478e-23)
(0.787758 3.18854e-05 5.35956e-26)
(0.789576 0.000249032 -3.73612e-23)
(0.786648 -0.00135349 -4.09475e-23)
(0.789871 0.00554133 -3.46574e-23)
(0.796566 0.00403346 -5.9465e-23)
(0.797959 0.000736761 6.57433e-23)
(0.798567 0.000340141 6.53923e-24)
(0.795584 -0.000823533 -1.48582e-22)
(0.589211 -8.74184e-05 -2.58732e-23)
(0.592921 0.000195231 -2.96081e-26)
(0.5913 3.30879e-05 2.75384e-23)
(0.592747 3.51368e-05 -5.5749e-23)
(0.591119 0.000274305 -5.462e-23)
(0.593506 0.00254877 4.8144e-23)
(0.610722 0.00306307 4.06495e-23)
(0.613773 0.000478133 3.03818e-23)
(0.614966 2.7544e-05 -1.23593e-24)
(0.613649 -0.000456748 -5.72663e-23)
(0.39513 -0.00265941 -1.44185e-22)
(0.395006 0.000313416 3.13505e-23)
(0.394706 2.29026e-05 -4.12013e-23)
(0.39527 -9.5554e-05 -1.5889e-23)
(0.395296 0.00143893 -5.21576e-23)
(0.396744 -0.000590871 1.2299e-22)
(0.405155 0.0011393 1.18356e-23)
(0.407871 0.00014828 -2.58059e-24)
(0.407954 -0.000237186 -2.14727e-23)
(0.410056 0.00278346 -1.85502e-22)
(0.200824 -0.0113056 3.64523e-23)
(0.197126 4.40536e-05 1.57045e-23)
(0.19813 1.62484e-05 -4.94728e-23)
(0.197813 -2.84002e-06 -1.50658e-23)
(0.199138 0.00565553 3.40528e-23)
(0.199603 -0.0051668 7.95304e-25)
(0.200866 0.000632833 1.65037e-23)
(0.202405 0.00011179 1.10193e-24)
(0.20125 -1.56359e-05 0)
(0.205537 0.0115103 0)
)
;

boundaryField
{
    top
    {
        type            fixedValue;
        value           uniform (0 0 0);
    }
    bottom
    {
        type            symmetryPlane;
    }
    inlet
    {
        type            pressureInletVelocity;
        value           nonuniform List<vector> 5((0.987142 0 0) (0.785401 0 0) (0.587912 0 0) (0.394959 0 0) (0.202756 0 0));
    }
    outlet
    {
        type            inletOutlet;
        inletValue      uniform (1 0 0);
        value           nonuniform List<vector> 5((0.932831 -0.00212485 8.52218e-24) (0.795584 -0.000823533 -1.48582e-22) (0.613649 -0.000456748 -5.72663e-23) (0.410056 0.00278346 -1.85502e-22) (0.205537 0.0115103 0));
    }
    frontAndBack
    {
        type            empty;
    }
}


// ************************************************************************* //
