/*--------------------------------*- C++ -*----------------------------------*\
| =========                 |                                                 |
| \\      /  F ield         | OpenFOAM: The Open Source CFD Toolbox           |
|  \\    /   O peration     | Version:  5.0                                   |
|   \\  /    A nd           | Web:      www.OpenFOAM.org                      |
|    \\/     M anipulation  |                                                 |
\*---------------------------------------------------------------------------*/
FoamFile
{
    version     2.0;
    format      ascii;
    class       surfaceScalarField;
    location    "56";
    object      phi;
}
// * * * * * * * * * * * * * * * * * * * * * * * * * * * * * * * * * * * * * //

dimensions      [0 3 -1 0 0 0 0];

internalField   nonuniform List<scalar> 
3052
(
-1.21774e-18
-1.01015e-17
4.49657e-18
-5.44979e-18
5.39898e-17
-5.2302e-17
1.06835e-16
-5.61301e-17
1.54011e-16
-4.91549e-17
2.05543e-16
-5.30109e-17
2.60925e-16
-5.67459e-17
3.17004e-16
-5.73815e-17
3.72339e-16
-5.66177e-17
4.26448e-16
-5.52989e-17
4.78577e-16
-5.32467e-17
5.2803e-16
-5.04721e-17
5.74099e-16
-4.70038e-17
6.1639e-16
-4.31324e-17
6.54498e-16
-3.89344e-17
6.8792e-16
-3.41944e-17
7.16506e-16
-2.93214e-17
7.40765e-16
-2.48983e-17
7.60517e-16
-2.03583e-17
7.75667e-16
-1.56542e-17
7.85935e-16
-1.0728e-17
7.91609e-16
-6.00583e-18
7.92728e-16
-1.39841e-18
7.89797e-16
2.78041e-18
7.82568e-16
7.09693e-18
7.7149e-16
1.10348e-17
7.56786e-16
1.46504e-17
7.39436e-16
1.73896e-17
7.19536e-16
1.99275e-17
6.97911e-16
2.17689e-17
6.74494e-16
2.36435e-17
6.49919e-16
2.50206e-17
6.24099e-16
2.64018e-17
5.97564e-16
2.7286e-17
5.69935e-16
2.84219e-17
5.41659e-16
2.91455e-17
5.12497e-16
3.00154e-17
4.82956e-16
3.04298e-17
4.52835e-16
3.0973e-17
4.22435e-16
3.12372e-17
3.91562e-16
3.16078e-17
3.60601e-16
3.16677e-17
3.29371e-16
3.18817e-17
2.9813e-16
3.19174e-17
2.66779e-16
3.20389e-17
2.35609e-16
3.18833e-17
2.04715e-16
3.162e-17
1.74347e-16
3.11416e-17
1.44462e-16
3.06623e-17
1.15619e-16
2.96448e-17
8.8214e-17
2.82008e-17
6.27072e-17
2.60531e-17
4.05025e-17
2.32187e-17
1.94003e-17
2.14877e-17
6.76313e-18
1.29551e-17
6.78315e-18
2.65588e-17
-3.57008e-17
4.75694e-17
-3.47315e-17
6.04971e-17
-7.54046e-17
8.47397e-17
-8.58399e-17
1.27065e-16
-9.59463e-17
1.72358e-16
-1.02215e-16
2.17906e-16
-1.05693e-16
2.64249e-16
-1.06815e-16
3.1069e-16
-1.0584e-16
3.56063e-16
-1.03322e-16
3.99742e-16
-9.93117e-17
4.41144e-16
-9.40007e-17
4.79812e-16
-8.75536e-17
5.15147e-16
-8.02952e-17
5.46857e-16
-7.22854e-17
5.74845e-16
-6.37216e-17
5.99163e-16
-5.49461e-17
6.1937e-16
-4.6321e-17
6.35561e-16
-3.75136e-17
6.47649e-16
-2.86198e-17
6.55894e-16
-1.95749e-17
6.60139e-16
-1.07586e-17
6.60676e-16
-2.14796e-18
6.57376e-16
5.90042e-18
6.5077e-16
1.37464e-17
6.40942e-16
2.08796e-17
6.28578e-16
2.72242e-17
6.13656e-16
3.24699e-17
5.96858e-16
3.71031e-17
5.78145e-16
4.09674e-17
5.58186e-16
4.44997e-17
5.3699e-16
4.7351e-17
5.15021e-16
4.98876e-17
4.92085e-16
5.18428e-17
4.68629e-16
5.36749e-17
4.44487e-16
5.50203e-17
4.20088e-16
5.62431e-17
3.95188e-16
5.70504e-17
3.70092e-16
5.77669e-17
3.44651e-16
5.81564e-17
3.19135e-16
5.8539e-17
2.93326e-16
5.86874e-17
2.6756e-16
5.88865e-17
2.41765e-16
5.89427e-17
2.16124e-16
5.89941e-17
1.90564e-16
5.87899e-17
1.65276e-16
5.83659e-17
1.40364e-16
5.75415e-17
1.1625e-16
5.64577e-17
9.29005e-17
5.46794e-17
7.0366e-17
5.20391e-17
4.98486e-17
4.87336e-17
3.07762e-17
4.28782e-17
1.75419e-17
3.62729e-17
5.54136e-18
2.50365e-17
1.233e-17
-1.30931e-18
-3.70527e-17
1.96366e-17
-5.97103e-17
4.11259e-17
-9.818e-17
6.80892e-17
-1.15789e-16
9.95879e-17
-1.30171e-16
1.35211e-16
-1.39901e-16
1.7212e-16
-1.44194e-16
2.09629e-16
-1.45572e-16
2.47249e-16
-1.44541e-16
2.842e-16
-1.41098e-16
3.19718e-16
-1.35497e-16
3.53247e-16
-1.28131e-16
3.84456e-16
-1.19353e-16
4.13028e-16
-1.09319e-16
4.38647e-16
-9.83086e-17
4.61225e-16
-8.65809e-17
4.80567e-16
-7.45243e-17
4.96443e-16
-6.23e-17
5.08823e-16
-4.99834e-17
5.17818e-16
-3.75861e-17
5.23536e-16
-2.527e-17
5.26088e-16
-1.31678e-17
5.25569e-16
-1.51872e-18
5.22125e-16
9.57219e-18
5.16075e-16
1.99923e-17
5.07702e-16
2.95497e-17
4.97192e-16
3.79744e-17
4.84711e-16
4.52745e-17
4.70532e-16
5.15399e-17
4.54936e-16
5.68863e-17
4.38231e-16
6.1456e-17
4.20575e-16
6.53167e-17
4.02141e-16
6.85019e-17
3.83091e-16
7.10754e-17
3.63666e-16
7.31713e-17
3.43967e-16
7.48677e-17
3.24078e-16
7.62091e-17
3.04036e-16
7.7233e-17
2.83904e-16
7.79968e-17
2.63695e-16
7.85215e-17
2.4349e-16
7.88262e-17
2.23341e-16
7.90177e-17
2.03269e-16
7.91485e-17
1.83267e-16
7.92277e-17
1.63404e-16
7.9159e-17
1.43712e-16
7.88577e-17
1.24257e-16
7.82296e-17
1.0518e-16
7.72319e-17
8.66562e-17
7.56562e-17
6.88021e-17
7.3318e-17
5.19399e-17
6.99875e-17
3.60309e-17
6.48244e-17
2.2699e-17
5.83018e-17
1.09462e-17
4.7891e-17
3.19218e-18
3.34557e-17
1.55755e-17
-4.66394e-18
-3.15536e-17
1.66449e-17
-7.81591e-17
3.06746e-17
-1.1223e-16
5.03812e-17
-1.36521e-16
7.43961e-17
-1.55495e-16
1.00627e-16
-1.67151e-16
1.28577e-16
-1.72771e-16
1.57489e-16
-1.7479e-16
1.86604e-16
-1.73685e-16
2.15134e-16
-1.69568e-16
2.42528e-16
-1.62871e-16
2.68361e-16
-1.53971e-16
2.92309e-16
-1.43264e-16
3.14108e-16
-1.31063e-16
3.33557e-16
-1.17652e-16
3.50493e-16
-1.03385e-16
3.64757e-16
-8.86086e-17
3.76204e-16
-7.35682e-17
3.84846e-16
-5.84027e-17
3.90729e-16
-4.32581e-17
3.93997e-16
-2.82913e-17
3.9474e-16
-1.3712e-17
3.93145e-16
2.9854e-19
3.89335e-16
1.35739e-17
3.83602e-16
2.59702e-17
3.76112e-16
3.72728e-17
3.67071e-16
4.7304e-17
3.56558e-16
5.60138e-17
3.44835e-16
6.34714e-17
3.32016e-16
6.97843e-17
3.18379e-16
7.505e-17
3.04004e-16
7.93622e-17
2.89163e-16
8.2854e-17
2.7393e-16
8.56538e-17
2.58576e-16
8.78843e-17
2.43132e-16
8.9641e-17
2.27787e-16
9.09664e-17
2.12504e-16
9.19642e-17
1.97373e-16
9.2688e-17
1.82392e-16
9.31567e-17
1.67651e-16
9.34149e-17
1.53101e-16
9.35149e-17
1.38794e-16
9.35119e-17
1.24668e-16
9.3451e-17
1.10737e-16
9.32473e-17
9.69768e-17
9.27964e-17
8.34696e-17
9.19976e-17
7.02723e-17
9.07734e-17
5.75425e-17
8.89789e-17
4.53277e-17
8.62698e-17
3.36317e-17
8.21589e-17
2.3387e-17
7.6853e-17
1.37623e-17
6.77174e-17
7.38475e-18
5.58598e-17
3.1799e-18
3.82515e-17
1.87817e-17
2.66988e-18
-3.31612e-17
9.866e-18
-8.33918e-17
1.98249e-17
-1.22164e-16
3.28341e-17
-1.50728e-16
4.90289e-17
-1.72626e-16
6.73906e-17
-1.86011e-16
8.73078e-17
-1.9293e-16
1.08006e-16
-1.95569e-16
1.28809e-16
-1.94469e-16
1.49187e-16
-1.89917e-16
1.68638e-16
-1.82305e-16
1.86858e-16
-1.72169e-16
2.03623e-16
-1.59975e-16
2.18727e-16
-1.46073e-16
2.31999e-16
-1.30799e-16
2.43327e-16
-1.14558e-16
2.52566e-16
-9.76869e-17
2.59653e-16
-8.04784e-17
2.64575e-16
-6.31447e-17
2.67419e-16
-4.58945e-17
2.68249e-16
-2.89382e-17
2.67217e-16
-1.24954e-17
2.64438e-16
3.23534e-18
2.60122e-16
1.80671e-17
2.54431e-16
3.18289e-17
2.47581e-16
4.43271e-17
2.39655e-16
5.54063e-17
2.30828e-16
6.5033e-17
2.21205e-16
7.3235e-17
2.1097e-16
8.00998e-17
2.00204e-16
8.5722e-17
1.89068e-16
9.02779e-17
1.7766e-16
9.38845e-17
1.66215e-16
9.66918e-17
1.5485e-16
9.8806e-17
1.43721e-16
1.00356e-16
1.32871e-16
1.01402e-16
1.22374e-16
1.02101e-16
1.12199e-16
1.02564e-16
1.02426e-16
1.02749e-16
9.30583e-17
1.02685e-16
8.41025e-17
1.02456e-16
7.54667e-17
1.02166e-16
6.71299e-17
1.01844e-16
5.90228e-17
1.01421e-16
5.11401e-17
1.00763e-16
4.34997e-17
9.97769e-17
3.61733e-17
9.83756e-17
2.91874e-17
9.63289e-17
2.25804e-17
9.33036e-17
1.66148e-17
8.89416e-17
1.09115e-17
8.22022e-17
6.64108e-18
7.35365e-17
2.48221e-18
5.993e-17
-1.23772e-19
4.11592e-17
1.86743e-17
3.39591e-18
-3.58889e-17
4.72963e-18
-8.50407e-17
9.02339e-18
-1.27569e-16
1.66225e-17
-1.59156e-16
2.6086e-17
-1.8258e-16
3.7034e-17
-1.973e-16
4.91419e-17
-2.0532e-16
6.17858e-17
-2.08427e-16
7.44357e-17
-2.07309e-16
8.67772e-17
-2.02431e-16
9.84872e-17
-1.94175e-16
1.0935e-16
-1.83147e-16
1.19164e-16
-1.69849e-16
1.27759e-16
-1.5468e-16
1.35037e-16
-1.38046e-16
1.40879e-16
-1.20353e-16
1.45217e-16
-1.01959e-16
1.48002e-16
-8.31876e-17
1.49263e-16
-6.43062e-17
1.49036e-16
-4.55714e-17
1.47438e-16
-2.7228e-17
1.44569e-16
-9.51801e-18
1.4059e-16
7.33748e-18
1.35628e-16
2.31341e-17
1.29869e-16
3.77026e-17
1.2342e-16
5.08688e-17
1.16428e-16
6.25165e-17
1.08976e-16
7.26013e-17
1.01207e-16
8.11409e-17
9.32092e-17
8.82046e-17
8.51191e-17
9.39083e-17
7.70253e-17
9.84012e-17
6.90851e-17
1.01848e-16
6.13927e-17
1.04379e-16
5.4069e-17
1.06121e-16
4.71701e-17
1.07212e-16
4.07972e-17
1.07736e-16
3.49583e-17
1.07889e-16
2.96996e-17
1.07788e-16
2.50375e-17
1.07386e-16
2.09346e-17
1.06791e-16
1.72569e-17
1.06132e-16
1.39992e-17
1.05427e-16
1.12012e-17
1.04642e-16
8.86327e-18
1.03773e-16
6.88353e-18
1.02776e-16
5.18534e-18
1.01548e-16
3.74139e-18
9.99452e-17
2.58068e-18
9.7728e-17
1.67641e-18
9.44586e-17
7.76859e-19
8.96791e-17
3.34578e-19
8.34656e-17
-5.73596e-19
7.35757e-17
-3.3667e-19
6.00049e-17
-2.57757e-19
4.11432e-17
1.8412e-17
3.5669e-19
-3.65384e-17
1.00982e-19
-8.52125e-17
9.82827e-19
-1.28867e-16
3.20623e-18
-1.61749e-16
6.06705e-18
-1.85722e-16
9.74131e-18
-2.01262e-16
1.42283e-17
-2.10136e-16
1.91588e-17
-2.13729e-16
2.41033e-17
-2.12615e-16
2.87687e-17
-2.07427e-16
3.30562e-17
-1.98753e-16
3.6862e-17
-1.87193e-16
4.0022e-17
-1.73197e-16
4.24182e-17
-1.57218e-16
4.3958e-17
-1.397e-16
4.45706e-17
-1.21054e-16
4.42067e-17
-1.01671e-16
4.28595e-17
-8.18975e-17
4.05509e-17
-6.20547e-17
3.73575e-17
-4.24171e-17
3.33717e-17
-2.32665e-17
2.87124e-17
-4.85846e-18
2.34915e-17
1.25621e-17
1.78431e-17
2.87979e-17
1.18905e-17
4.36631e-17
5.76289e-18
5.70259e-17
-4.49099e-19
6.87718e-17
-6.6374e-18
7.88678e-17
-1.27228e-17
8.73236e-17
-1.86004e-17
9.4213e-17
-2.41964e-17
9.96361e-17
-2.93917e-17
1.03757e-16
-3.4111e-17
1.06727e-16
-3.826e-17
1.08691e-16
-4.17534e-17
1.09753e-16
-4.45898e-17
1.1019e-16
-4.68086e-17
1.10082e-16
-4.82803e-17
1.09493e-16
-4.88915e-17
1.08527e-16
-4.87263e-17
1.07359e-16
-4.78938e-17
1.06091e-16
-4.64273e-17
1.04801e-16
-4.43412e-17
1.03474e-16
-4.16396e-17
1.02094e-16
-3.83933e-17
1.00698e-16
-3.47259e-17
9.9293e-17
-3.07557e-17
9.77864e-17
-2.65252e-17
9.60129e-17
-2.21542e-17
9.36774e-17
-1.78225e-17
9.04059e-17
-1.35282e-17
8.58604e-17
-9.73408e-18
7.91293e-17
-5.97609e-18
7.02433e-17
-3.41917e-18
5.71882e-17
-1.34616e-18
3.89006e-17
1.70618e-17
-1.69381e-18
-3.47274e-17
-3.46187e-18
-8.3333e-17
-6.02213e-18
-1.2628e-16
-8.82622e-18
-1.58942e-16
-1.1901e-17
-1.82785e-16
-1.47382e-17
-1.98708e-16
-1.72846e-17
-2.07981e-16
-1.97317e-17
-2.11713e-16
-2.20598e-17
-2.10689e-16
-2.44095e-17
-2.05453e-16
-2.68917e-17
-1.96608e-16
-2.96245e-17
-1.8476e-16
-3.26763e-17
-1.70407e-16
-3.61039e-17
-1.5402e-16
-3.99531e-17
-1.36058e-16
-4.42542e-17
-1.16944e-16
-4.90166e-17
-9.70831e-17
-5.42352e-17
-7.68495e-17
-5.98646e-17
-5.65822e-17
-6.58337e-17
-3.65894e-17
-7.20496e-17
-1.71706e-17
-7.84148e-17
1.40803e-18
-8.48218e-17
1.88968e-17
-9.11617e-17
3.5078e-17
-9.73123e-17
4.97772e-17
-1.03175e-16
6.28702e-17
-1.08663e-16
7.42794e-17
-1.1371e-16
8.396e-17
-1.1823e-16
9.19273e-17
-1.22159e-16
9.82474e-17
-1.25424e-16
1.03046e-16
-1.27974e-16
1.06465e-16
-1.29751e-16
1.08676e-16
-1.30716e-16
1.09823e-16
-1.30796e-16
1.10013e-16
-1.29909e-16
1.09483e-16
-1.28062e-16
1.08433e-16
-1.25256e-16
1.06894e-16
-1.21482e-16
1.0498e-16
-1.16821e-16
1.02938e-16
-1.11322e-16
1.00849e-16
-1.05005e-16
9.87472e-17
-9.7916e-17
9.66699e-17
-9.01482e-17
9.46375e-17
-8.18082e-17
9.26907e-17
-7.30087e-17
9.08346e-17
-6.38408e-17
8.89974e-17
-5.44119e-17
8.70172e-17
-4.49086e-17
8.4668e-17
-3.5555e-17
8.15496e-17
-2.6728e-17
7.72035e-17
-1.85023e-17
7.14252e-17
-1.15356e-17
6.2929e-17
-5.63971e-18
5.10378e-17
-1.49408e-18
3.47347e-17
1.55592e-17
-2.40107e-18
-3.22687e-17
-6.43384e-18
-7.88821e-17
-1.23942e-17
-1.19991e-16
-1.97922e-17
-1.51417e-16
-2.81051e-17
-1.74547e-16
-3.67967e-17
-1.90243e-16
-4.55769e-17
-1.995e-16
-5.43362e-17
-2.03255e-16
-6.3083e-17
-2.02249e-16
-7.18311e-17
-1.96994e-16
-8.05387e-17
-1.88168e-16
-8.92413e-17
-1.76298e-16
-9.79583e-17
-1.6191e-16
-1.06706e-16
-1.45487e-16
-1.15473e-16
-1.2749e-16
-1.2425e-16
-1.08353e-16
-1.3302e-16
-8.84873e-17
-1.4175e-16
-6.82812e-17
-1.50388e-16
-4.80912e-17
-1.58864e-16
-2.8246e-17
-1.67101e-16
-9.04742e-18
-1.75006e-16
9.22443e-18
-1.82492e-16
2.63104e-17
-1.89446e-16
4.19819e-17
-1.95772e-16
5.6069e-17
-2.01378e-16
6.84706e-17
-2.06211e-16
7.91264e-17
-2.10211e-16
8.80052e-17
-2.13318e-16
9.50994e-17
-2.15464e-16
1.00491e-16
-2.16619e-16
1.04316e-16
-2.16761e-16
1.0674e-16
-2.15835e-16
1.07887e-16
-2.13779e-16
1.07916e-16
-2.10669e-16
1.07057e-16
-2.06432e-16
1.05418e-16
-2.00996e-16
1.03182e-16
-1.94391e-16
1.00493e-16
-1.86684e-16
9.74904e-17
-1.77899e-16
9.43872e-17
-1.681e-16
9.1287e-17
-1.57352e-16
8.82482e-17
-1.45743e-16
8.53261e-17
-1.33384e-16
8.25683e-17
-1.2041e-16
8.0018e-17
-1.06949e-16
7.76856e-17
-9.3125e-17
7.55085e-17
-7.90706e-17
7.33647e-17
-6.50159e-17
7.10469e-17
-5.13159e-17
6.82316e-17
-3.82651e-17
6.45797e-17
-2.63822e-17
5.94856e-17
-1.61043e-17
5.24881e-17
-7.9854e-18
4.28487e-17
-2.6422e-18
2.9023e-17
1.28977e-17
-2.86855e-18
-2.91822e-17
-8.98409e-18
-7.22552e-17
-1.80267e-17
-1.10547e-16
-2.92675e-17
-1.39968e-16
-4.20675e-17
-1.61734e-16
-5.57699e-17
-1.7664e-16
-6.99077e-17
-1.85502e-16
-8.42566e-17
-1.89073e-16
-9.86887e-17
-1.87996e-16
-1.13039e-16
-1.82819e-16
-1.27236e-16
-1.74139e-16
-1.41218e-16
-1.62475e-16
-1.54946e-16
-1.48346e-16
-1.68378e-16
-1.32214e-16
-1.81475e-16
-1.14547e-16
-1.9419e-16
-9.57795e-17
-2.06478e-16
-7.6328e-17
-2.18282e-16
-5.65901e-17
-2.2955e-16
-3.69246e-17
-2.40213e-16
-1.76724e-17
-2.50197e-16
8.63251e-19
-2.59429e-16
1.83874e-17
-2.67825e-16
3.46481e-17
-2.75289e-16
4.93912e-17
-2.81724e-16
6.24596e-17
-2.87063e-16
7.37797e-17
-2.91268e-16
8.33373e-17
-2.94312e-16
9.10901e-17
-2.96127e-16
9.69913e-17
-2.96657e-16
1.01114e-16
-2.95895e-16
1.03659e-16
-2.93854e-16
1.04805e-16
-2.90521e-16
1.04667e-16
-2.85881e-16
1.03395e-16
-2.79913e-16
1.01222e-16
-2.72613e-16
9.826e-17
-2.63976e-16
9.47008e-17
-2.5404e-16
9.07193e-17
-2.42864e-16
8.64857e-17
-2.30486e-16
8.21827e-17
-2.16965e-16
7.79426e-17
-2.02394e-16
7.3854e-17
-1.8688e-16
6.99963e-17
-1.70549e-16
6.64359e-17
-1.53547e-16
6.32265e-17
-1.36032e-16
6.03793e-17
-1.18149e-16
5.78654e-17
-1.00085e-16
5.55941e-17
-8.21344e-17
5.34058e-17
-6.46546e-17
5.10538e-17
-4.80891e-17
4.81788e-17
-3.30717e-17
4.44347e-17
-2.00655e-17
3.94138e-17
-9.92215e-18
3.1981e-17
-3.03548e-18
2.19483e-17
9.8451e-18
-3.3177e-18
-2.57084e-17
-1.09601e-17
-6.40121e-17
-2.25289e-17
-9.84834e-17
-3.69881e-17
-1.25203e-16
-5.35595e-17
-1.4506e-16
-7.14693e-17
-1.58734e-16
-9.01421e-17
-1.66875e-16
-1.09223e-16
-1.70071e-16
-1.28444e-16
-1.68872e-16
-1.47565e-16
-1.63813e-16
-1.66418e-16
-1.55401e-16
-1.84879e-16
-1.44138e-16
-2.02854e-16
-1.30497e-16
-2.20251e-16
-1.14944e-16
-2.36995e-16
-9.79227e-17
-2.53019e-16
-7.98702e-17
-2.68253e-16
-6.11991e-17
-2.8263e-16
-4.23098e-17
-2.96081e-16
-2.35628e-17
-3.08537e-16
-5.29725e-18
-3.19938e-16
1.21754e-17
-3.30224e-16
2.85769e-17
-3.39332e-16
4.36352e-17
-3.47162e-16
5.70867e-17
-3.5361e-16
6.87863e-17
-3.58621e-16
7.87211e-17
-3.62197e-16
8.69204e-17
-3.6436e-16
9.33253e-17
-3.65025e-16
9.7759e-17
-3.64101e-16
1.00307e-16
-3.61633e-16
1.01306e-16
-3.57691e-16
1.00977e-16
-3.52276e-16
9.93683e-17
-3.45382e-16
9.66239e-17
-3.3698e-16
9.29461e-17
-3.2709e-16
8.85048e-17
-3.15744e-16
8.34959e-17
-3.02989e-16
7.81105e-17
-2.88885e-16
7.25315e-17
-2.7349e-16
6.69394e-17
-2.56878e-16
6.14785e-17
-2.39149e-16
5.62668e-17
-2.20414e-16
5.14081e-17
-2.00805e-16
4.69896e-17
-1.80488e-16
4.30732e-17
-1.59638e-16
3.96973e-17
-1.38436e-16
3.68528e-17
-1.17097e-16
3.44948e-17
-9.59478e-17
3.2521e-17
-7.54231e-17
3.07293e-17
-5.60379e-17
2.88889e-17
-3.83193e-17
2.68046e-17
-2.3371e-17
2.37252e-17
-1.1279e-17
1.98229e-17
-3.43224e-18
1.35387e-17
6.38051e-18
-3.79497e-18
-2.1677e-17
-1.25144e-17
-5.46437e-17
-2.59736e-17
-8.44529e-17
-4.2958e-17
-1.0785e-16
-6.25316e-17
-1.25314e-16
-8.38151e-17
-1.37389e-16
-1.06135e-16
-1.44546e-16
-1.29012e-16
-1.4722e-16
-1.52074e-16
-1.45872e-16
-1.75018e-16
-1.40949e-16
-1.97617e-16
-1.32903e-16
-2.19678e-16
-1.22187e-16
-2.41052e-16
-1.09235e-16
-2.61617e-16
-9.44906e-17
-2.81266e-16
-7.83845e-17
-2.99907e-16
-6.1339e-17
-3.17452e-16
-4.37652e-17
-3.33825e-16
-2.60445e-17
-3.48945e-16
-8.54594e-18
-3.62748e-16
8.39732e-18
-3.75171e-16
2.44778e-17
-3.86181e-16
3.94389e-17
-3.95745e-16
5.30384e-17
-4.03761e-16
6.49571e-17
-4.101e-16
7.5028e-17
-4.14701e-16
8.32944e-17
-4.1763e-16
8.98768e-17
-4.18989e-16
9.47429e-17
-4.18618e-16
9.74696e-17
-4.16391e-16
9.81688e-17
-4.12435e-16
9.74447e-17
-4.069e-16
9.55511e-17
-3.99755e-16
9.2338e-17
-3.90988e-16
8.79772e-17
-3.806e-16
8.26857e-17
-3.68624e-16
7.6663e-17
-3.55109e-16
7.01208e-17
-3.40113e-16
6.32564e-17
-3.237e-16
5.62647e-17
-3.05943e-16
4.93279e-17
-2.86929e-16
4.26064e-17
-2.66763e-16
3.62386e-17
-2.45559e-16
3.03499e-17
-2.23458e-16
2.50423e-17
-2.00628e-16
2.04036e-17
-1.77264e-16
1.64917e-17
-1.53563e-16
1.33338e-17
-1.29765e-16
1.09247e-17
-1.06243e-16
9.21534e-18
-8.34393e-17
8.1225e-18
-6.18577e-17
7.46119e-18
-4.24172e-17
6.92007e-18
-2.54631e-17
6.92553e-18
-1.26478e-17
5.91589e-18
-3.9857e-18
4.54641e-18
2.3701e-18
-4.10213e-18
-1.73819e-17
-1.36104e-17
-4.44439e-17
-2.84205e-17
-6.90391e-17
-4.72529e-17
-8.85979e-17
-6.90212e-17
-1.03321e-16
-9.2784e-17
-1.13523e-16
-1.17787e-16
-1.19495e-16
-1.43464e-16
-1.2154e-16
-1.69371e-16
-1.20002e-16
-1.95149e-16
-1.15244e-16
-2.20506e-16
-1.07638e-16
-2.45218e-16
-9.75815e-17
-2.69091e-16
-8.54762e-17
-2.91969e-16
-7.17306e-17
-3.13721e-16
-5.67554e-17
-3.34236e-16
-4.09547e-17
-3.5341e-16
-2.4721e-17
-3.71155e-16
-8.42744e-18
-3.87394e-16
7.5664e-18
-4.02055e-16
2.29318e-17
-4.15081e-16
3.73805e-17
-4.26423e-16
5.06772e-17
-4.36102e-16
6.26606e-17
-4.44059e-16
7.29127e-17
-4.50126e-16
8.1134e-17
-4.54212e-16
8.74142e-17
-4.56477e-16
9.21454e-17
-4.5712e-16
9.53591e-17
-4.55836e-16
9.61462e-17
-4.52426e-16
9.47426e-17
-4.47242e-16
9.2292e-17
-4.40457e-16
8.88305e-17
-4.31948e-16
8.39194e-17
-4.21723e-16
7.78585e-17
-4.09812e-16
7.08954e-17
-3.96268e-16
6.325e-17
-3.81149e-16
5.51424e-17
-3.64527e-16
4.67769e-17
-3.4647e-16
3.83543e-17
-3.27059e-16
3.00648e-17
-3.06389e-16
2.20836e-17
-2.84568e-16
1.45654e-17
-2.61714e-16
7.6488e-18
-2.37963e-16
1.46117e-18
-2.13494e-16
-3.89448e-18
-1.88503e-16
-8.33157e-18
-1.632e-16
-1.17874e-17
-1.37842e-16
-1.42158e-17
-1.12787e-16
-1.55924e-17
-8.85223e-17
-1.59806e-17
-6.56848e-17
-1.54132e-17
-4.47571e-17
-1.36919e-17
-2.73051e-17
-1.17004e-17
-1.29703e-17
-8.45316e-18
-3.76617e-18
-5.37632e-18
-1.44083e-18
-4.26064e-18
-1.28793e-17
-1.42969e-17
-3.37216e-17
-2.99289e-17
-5.27792e-17
-4.9885e-17
-6.8174e-17
-7.30325e-17
-7.99217e-17
-9.83545e-17
-8.80715e-17
-1.25054e-16
-9.27331e-17
-1.52508e-16
-9.40736e-17
-1.80226e-16
-9.2318e-17
-2.07803e-16
-8.77333e-17
-2.3491e-16
-8.06234e-17
-2.61284e-16
-7.13158e-17
-2.86708e-16
-6.01746e-17
-3.11e-16
-4.75698e-17
-3.34011e-16
-3.38855e-17
-3.55609e-16
-1.95e-17
-3.75688e-16
-4.78602e-18
-3.94154e-16
9.89759e-18
-4.10933e-16
2.4206e-17
-4.2595e-16
3.78271e-17
-4.39145e-16
5.04862e-17
-4.50446e-16
6.19516e-17
-4.59829e-16
7.20842e-17
-4.67341e-16
8.05159e-17
-4.72941e-16
8.68179e-17
-4.76414e-16
9.09125e-17
-4.77921e-16
9.3588e-17
-4.77717e-16
9.50382e-17
-4.75622e-16
9.39346e-17
-4.71486e-16
9.05479e-17
-4.65519e-16
8.63239e-17
-4.57744e-16
8.11042e-17
-4.48186e-16
7.44367e-17
-4.36896e-16
6.66676e-17
-4.23928e-16
5.80449e-17
-4.09345e-16
4.88023e-17
-3.93214e-16
3.91531e-17
-3.75608e-16
2.93189e-17
-3.56603e-16
1.95e-17
-3.36283e-16
9.90009e-18
-3.14744e-16
7.02813e-19
-2.92096e-16
-7.92517e-18
-2.68452e-16
-1.58293e-17
-2.43946e-16
-2.28667e-17
-2.18751e-16
-2.89095e-17
-1.93068e-16
-3.38441e-17
-1.67103e-16
-3.75664e-17
-1.41105e-16
-3.99855e-17
-1.1546e-16
-4.10295e-17
-9.06355e-17
-4.05983e-17
-6.71094e-17
-3.86751e-17
-4.60456e-17
-3.54939e-17
-2.74714e-17
-2.98495e-17
-1.37486e-17
-2.35589e-17
-4.43231e-18
-1.51222e-17
-5.89891e-18
-4.29521e-18
-8.37009e-18
-1.45231e-17
-2.27731e-17
-3.04565e-17
-3.61589e-17
-5.08749e-17
-4.72911e-17
-7.45734e-17
-5.59604e-17
-1.00539e-16
-6.19755e-17
-1.27947e-16
-6.52607e-17
-1.56152e-16
-6.58583e-17
-1.84633e-16
-6.38698e-17
-2.12964e-16
-5.94712e-17
-2.40791e-16
-5.28874e-17
-2.67827e-16
-4.43898e-17
-2.93834e-16
-3.42887e-17
-3.18618e-16
-2.29214e-17
-3.4201e-16
-1.06317e-17
-3.63876e-16
2.22355e-18
-3.841e-16
1.52971e-17
-4.02594e-16
2.82477e-17
-4.19277e-16
4.07559e-17
-4.3409e-16
5.25209e-17
-4.46969e-16
6.32772e-17
-4.57862e-16
7.2792e-17
-4.66666e-16
8.08809e-17
-4.73402e-16
8.72634e-17
-4.78188e-16
9.15976e-17
-4.81063e-16
9.37346e-17
-4.8199e-16
9.44325e-17
-4.80819e-16
9.37808e-17
-4.77841e-16
9.09119e-17
-4.73241e-16
8.59473e-17
-4.66729e-16
7.985e-17
-4.58235e-16
7.26721e-17
-4.47984e-16
6.42713e-17
-4.36062e-16
5.48504e-17
-4.22532e-16
4.46426e-17
-4.07464e-16
3.38724e-17
-3.90929e-16
2.27662e-17
-3.73004e-16
1.15435e-17
-3.53765e-16
4.19983e-19
-3.33299e-16
-1.04022e-17
-3.11702e-16
-2.07326e-17
-2.89076e-16
-3.03916e-17
-2.65528e-16
-3.9212e-17
-2.41186e-16
-4.70344e-17
-2.16212e-16
-5.37094e-17
-1.90794e-16
-5.90928e-17
-1.65131e-16
-6.30474e-17
-1.39466e-16
-6.5432e-17
-1.14129e-16
-6.60996e-17
-8.95754e-17
-6.49624e-17
-6.65174e-17
-6.18497e-17
-4.53015e-17
-5.61469e-17
-2.77713e-17
-4.89143e-17
-1.3076e-17
-3.81404e-17
-3.75509e-18
-2.51994e-17
-9.69905e-18
-4.33581e-18
-3.79913e-18
-1.4337e-17
-1.19721e-17
-3.00965e-17
-1.97723e-17
-5.02457e-17
-2.66931e-17
-7.36871e-17
-3.22786e-17
-9.93931e-17
-3.61533e-17
-1.26537e-16
-3.80692e-17
-1.54473e-16
-3.79235e-17
-1.82683e-16
-3.57069e-17
-2.10728e-16
-3.15016e-17
-2.38249e-16
-2.54636e-17
-2.64946e-16
-1.78049e-17
-2.90575e-16
-8.78764e-18
-3.14925e-16
1.29519e-18
-3.37827e-16
1.21308e-17
-3.59138e-16
2.33965e-17
-3.78746e-16
3.47652e-17
-3.96555e-16
4.5921e-17
-4.12494e-16
5.65588e-17
-4.265e-16
6.63976e-17
-4.38527e-16
7.51805e-17
-4.48532e-16
8.2687e-17
-4.56469e-16
8.87102e-17
-4.62335e-16
9.30215e-17
-4.66249e-16
9.54065e-17
-4.6843e-16
9.58365e-17
-4.68704e-16
9.46611e-17
-4.66759e-16
9.18394e-17
-4.62968e-16
8.71508e-17
-4.57647e-16
8.06782e-17
-4.50597e-16
7.28635e-17
-4.41746e-16
6.39032e-17
-4.31226e-16
5.385e-17
-4.19131e-16
4.28766e-17
-4.05548e-16
3.11935e-17
-3.90551e-16
1.9022e-17
-3.74225e-16
6.59332e-18
-3.56643e-16
-5.876e-18
-3.37887e-16
-1.81673e-17
-3.1804e-16
-3.00779e-17
-2.97193e-16
-4.14105e-17
-2.75442e-16
-5.19807e-17
-2.52882e-16
-6.16046e-17
-2.29626e-16
-7.01158e-17
-2.05818e-16
-7.73376e-17
-1.81633e-16
-8.31069e-17
-1.57242e-16
-8.72472e-17
-1.32853e-16
-8.95797e-17
-1.08803e-16
-8.99202e-17
-8.55124e-17
-8.80159e-17
-6.33933e-17
-8.36172e-17
-4.36779e-17
-7.68302e-17
-2.5965e-17
-6.5815e-17
-1.31999e-17
-5.24267e-17
-4.32772e-18
-3.43806e-17
-1.40446e-17
-4.04322e-18
5.17437e-19
-1.37355e-17
-1.66413e-18
-2.87919e-17
-4.11638e-18
-4.80655e-17
-7.03303e-18
-7.04686e-17
-9.68468e-18
-9.50242e-17
-1.15219e-17
-1.20949e-16
-1.21265e-17
-1.47629e-16
-1.12699e-17
-1.74559e-16
-8.84197e-18
-2.0131e-16
-4.84392e-18
-2.27526e-16
6.38792e-19
-2.52912e-16
7.45018e-18
-2.77218e-16
1.53787e-17
-3.00238e-16
2.41689e-17
-3.21794e-16
3.35429e-17
-3.4175e-16
4.32063e-17
-3.59991e-16
5.28627e-17
-3.7643e-16
6.22165e-17
-3.91001e-16
7.09871e-17
-4.03651e-16
7.89072e-17
-4.14338e-16
8.5732e-17
-4.23042e-16
9.12509e-17
-4.29761e-16
9.5283e-17
-4.34524e-16
9.7642e-17
-4.37437e-16
9.82011e-17
-4.38606e-16
9.6927e-17
-4.37907e-16
9.39325e-17
-4.35304e-16
8.92444e-17
-4.30976e-16
8.28628e-17
-4.25114e-16
7.4871e-17
-4.17704e-16
6.55231e-17
-4.08728e-16
5.50148e-17
-3.98265e-16
4.34947e-17
-3.86403e-16
3.11427e-17
-3.73236e-16
1.81696e-17
-3.58848e-16
4.79225e-18
-3.43323e-16
-8.76662e-18
-3.26734e-16
-2.22875e-17
-3.09163e-16
-3.55567e-17
-2.90682e-16
-4.83683e-17
-2.71382e-16
-6.05288e-17
-2.51338e-16
-7.18409e-17
-2.3064e-16
-8.21222e-17
-2.0937e-16
-9.11865e-17
-1.8766e-16
-9.88522e-17
-1.65648e-16
-1.04922e-16
-1.43485e-16
-1.09198e-16
-1.21338e-16
-1.11459e-16
-9.94694e-17
-1.11466e-16
-7.82468e-17
-1.08999e-16
-5.83282e-17
-1.03657e-16
-3.9772e-17
-9.44795e-17
-2.46623e-17
-8.26262e-17
-1.14884e-17
-6.51368e-17
-3.18762e-18
-4.3347e-17
-1.72734e-17
-3.80563e-18
4.47926e-18
-1.27333e-17
7.9295e-18
-2.66765e-17
1.02813e-17
-4.43981e-17
1.09821e-17
-6.49936e-17
1.10264e-17
-8.75608e-17
1.10632e-17
-1.11372e-16
1.16516e-17
-1.3586e-16
1.3146e-17
-1.60556e-16
1.57477e-17
-1.85057e-16
1.95275e-17
-2.09023e-16
2.44591e-17
-2.3217e-16
3.0441e-17
-2.54259e-16
3.72998e-17
-2.75084e-16
4.48249e-17
-2.94479e-16
5.27643e-17
-3.12304e-16
6.08646e-17
-3.28457e-16
6.88478e-17
-3.42862e-16
7.64564e-17
-3.55462e-16
8.34233e-17
-3.66216e-16
8.95084e-17
-3.75096e-16
9.44613e-17
-3.82099e-16
9.81123e-17
-3.87248e-16
1.00291e-16
-3.90602e-16
1.00868e-16
-3.9224e-16
9.9724e-17
-3.92214e-16
9.68261e-17
-3.90533e-16
9.22117e-17
-3.87235e-16
8.59535e-17
-3.82422e-16
7.80782e-17
-3.76214e-16
6.87165e-17
-3.68656e-16
5.80362e-17
-3.59791e-16
4.62499e-17
-3.49693e-16
3.35122e-17
-3.3845e-16
2.00423e-17
-3.26148e-16
6.02191e-18
-3.12877e-16
-8.305e-18
-2.98715e-16
-2.27485e-17
-2.83742e-16
-3.70651e-17
-2.68025e-16
-5.10729e-17
-2.51636e-16
-6.45485e-17
-2.3464e-16
-7.7317e-17
-2.17111e-16
-8.91637e-17
-1.99103e-16
-9.99155e-17
-1.80691e-16
-1.09369e-16
-1.61963e-16
-1.17344e-16
-1.43036e-16
-1.23613e-16
-1.24011e-16
-1.27961e-16
-1.05012e-16
-1.30131e-16
-8.62695e-17
-1.2989e-16
-6.80826e-17
-1.26833e-16
-5.06618e-17
-1.20512e-16
-3.51922e-17
-1.10926e-16
-2.08653e-17
-9.56472e-17
-1.09123e-17
-7.65603e-17
-3.82069e-18
-5.06254e-17
-2.11019e-17
-3.31174e-18
8.02329e-18
-1.13873e-17
1.6354e-17
-2.36902e-17
2.29364e-17
-3.92944e-17
2.67679e-17
-5.73887e-17
2.91426e-17
-7.71922e-17
3.07888e-17
-9.80578e-17
3.24044e-17
-1.19489e-16
3.44404e-17
-1.41068e-16
3.71727e-17
-1.62434e-16
4.07228e-17
-1.83273e-16
4.51198e-17
-2.03325e-16
5.02971e-17
-2.22363e-16
5.61382e-17
-2.40195e-16
6.24485e-17
-2.5666e-16
6.90296e-17
-2.71636e-16
7.56332e-17
-2.85026e-16
8.20427e-17
-2.96768e-16
8.79998e-17
-3.06819e-16
9.32957e-17
-3.15163e-16
9.76733e-17
-3.21768e-16
1.00916e-16
-3.26671e-16
1.02862e-16
-3.29921e-16
1.0342e-16
-3.31603e-16
1.02427e-16
-3.31734e-16
9.97793e-17
-3.30409e-16
9.54368e-17
-3.27679e-16
8.94755e-17
-3.23624e-16
8.18995e-17
-3.18318e-16
7.28257e-17
-3.11876e-16
6.23289e-17
-3.04357e-16
5.06211e-17
-2.95851e-16
3.78368e-17
-2.86411e-16
2.42187e-17
-2.76147e-16
9.91292e-18
-2.65123e-16
-4.82033e-18
-2.53447e-16
-1.98178e-17
-2.41173e-16
-3.48147e-17
-2.28397e-16
-4.96531e-17
-2.15157e-16
-6.4087e-17
-2.01529e-16
-7.79688e-17
-1.87551e-16
-9.10608e-17
-1.73286e-16
-1.03211e-16
-1.58753e-16
-1.14192e-16
-1.44011e-16
-1.23856e-16
-1.29099e-16
-1.31966e-16
-1.14106e-16
-1.38328e-16
-9.90748e-17
-1.42656e-16
-8.41034e-17
-1.44731e-16
-6.92867e-17
-1.44226e-16
-5.48338e-17
-1.40886e-16
-4.12287e-17
-1.34068e-16
-2.82347e-17
-1.22545e-16
-1.79513e-17
-1.07626e-16
-8.19536e-18
-8.54979e-17
-2.19722e-18
-5.71265e-17
-2.33304e-17
-2.82522e-18
1.08982e-17
-9.65477e-18
2.34892e-17
-1.99198e-17
3.34678e-17
-3.28256e-17
3.97549e-17
-4.77695e-17
4.39894e-17
-6.41037e-17
4.6961e-17
-8.12834e-17
4.94073e-17
-9.88874e-17
5.18511e-17
-1.16569e-16
5.46357e-17
-1.34008e-16
5.79328e-17
-1.50939e-16
6.18036e-17
-1.67119e-16
6.62302e-17
-1.82364e-16
7.11162e-17
-1.96479e-16
7.63019e-17
-2.09335e-16
8.16089e-17
-2.20798e-16
8.68432e-17
-2.30819e-16
9.1798e-17
-2.39315e-16
9.62609e-17
-2.46298e-16
1.00034e-16
-2.51738e-16
1.02915e-16
-2.55667e-16
1.04628e-16
-2.58115e-16
1.05153e-16
-2.59178e-16
1.04307e-16
-2.58831e-16
1.01974e-16
-2.5725e-16
9.80785e-17
-2.54467e-16
9.26159e-17
-2.50634e-16
8.55891e-17
-2.45752e-16
7.7054e-17
-2.40002e-16
6.70825e-17
-2.33391e-16
5.5811e-17
-2.26104e-16
4.33901e-17
-2.18129e-16
3.00087e-17
-2.09651e-16
1.58472e-17
-2.00651e-16
1.10239e-18
-1.91313e-16
-1.40097e-17
-1.8162e-16
-2.9285e-17
-1.71745e-16
-4.45041e-17
-1.61658e-16
-5.9487e-17
-1.51495e-16
-7.40352e-17
-1.41207e-16
-8.79806e-17
-1.30915e-16
-1.01116e-16
-1.20561e-16
-1.13272e-16
-1.10238e-16
-1.24248e-16
-9.9876e-17
-1.33876e-16
-8.95649e-17
-1.41942e-16
-7.92629e-17
-1.48246e-16
-6.90417e-17
-1.52496e-16
-5.88268e-17
-1.54449e-16
-4.87461e-17
-1.53825e-16
-3.88693e-17
-1.50186e-16
-2.92404e-17
-1.42829e-16
-2.08555e-17
-1.319e-16
-1.2281e-17
-1.14349e-16
-6.90497e-18
-9.21255e-17
-2.70398e-18
-6.12978e-17
-2.60278e-17
-2.26414e-18
1.3256e-17
-7.48848e-18
2.89926e-17
-1.52887e-17
4.13567e-17
-2.50518e-17
4.95245e-17
-3.6286e-17
5.50802e-17
-4.85455e-17
5.89898e-17
-6.13965e-17
6.19974e-17
-7.45195e-17
6.46814e-17
-8.76221e-17
6.74225e-17
-1.00469e-16
7.04327e-17
-1.12808e-16
7.37888e-17
-1.24473e-16
7.75048e-17
-1.35253e-16
8.15153e-17
-1.45038e-16
8.56829e-17
-1.53648e-16
8.98484e-17
-1.61068e-16
9.38583e-17
-1.67147e-16
9.75198e-17
-1.71936e-16
1.00663e-16
-1.75334e-16
1.03111e-16
-1.77483e-16
1.04703e-16
-1.78302e-16
1.05171e-16
-1.77956e-16
1.04489e-16
-1.76398e-16
1.02527e-16
-1.73872e-16
9.91894e-17
-1.70336e-16
9.43952e-17
-1.6605e-16
8.81505e-17
-1.6094e-16
8.04277e-17
-1.55289e-16
7.13066e-17
-1.49012e-16
6.08401e-17
-1.42405e-16
4.91939e-17
-1.35375e-16
3.64829e-17
-1.28213e-16
2.29251e-17
-1.20813e-16
8.65142e-18
-1.13453e-16
-6.09677e-18
-1.06021e-16
-2.11679e-17
-9.87848e-17
-3.62962e-17
-9.16247e-17
-5.13364e-17
-8.47824e-17
-6.60547e-17
-7.81005e-17
-8.03486e-17
-7.17759e-17
-9.39908e-17
-6.56448e-17
-1.06859e-16
-5.98723e-17
-1.18711e-16
-5.42803e-17
-1.29412e-16
-4.90013e-17
-1.38732e-16
-4.39045e-17
-1.46547e-16
-3.9093e-17
-1.52604e-16
-3.42764e-17
-1.56776e-16
-2.94253e-17
-1.58735e-16
-2.45685e-17
-1.57997e-16
-1.99433e-17
-1.54235e-16
-1.56992e-17
-1.4701e-16
-1.10191e-17
-1.34774e-16
-7.79495e-18
-1.19026e-16
-3.38071e-18
-9.54074e-17
-5.98392e-19
-6.41998e-17
-2.6637e-17
-1.62803e-18
1.49395e-17
-5.06373e-18
3.23089e-17
-9.96895e-18
4.61944e-17
-1.61646e-17
5.5438e-17
-2.32198e-17
6.17539e-17
-3.0879e-17