/*--------------------------------*- C++ -*----------------------------------*\
| =========                 |                                                 |
| \\      /  F ield         | OpenFOAM: The Open Source CFD Toolbox           |
|  \\    /   O peration     | Version:  5.0                                   |
|   \\  /    A nd           | Web:      www.OpenFOAM.org                      |
|    \\/     M anipulation  |                                                 |
\*---------------------------------------------------------------------------*/
FoamFile
{
    version     2.0;
    format      ascii;
    class       volScalarField;
    location    "0.1";
    object      nu;
}
// * * * * * * * * * * * * * * * * * * * * * * * * * * * * * * * * * * * * * //

dimensions      [0 2 -1 0 0 0 0];

internalField   nonuniform List<scalar> 
400
(
0.0104734
0.0104618
0.0104522
0.0104489
0.0104483
0.0104481
0.0104481
0.010448
0.0104481
0.0104481
0.0104481
0.0104481
0.0104481
0.0104481
0.0104481
0.0104481
0.0104481
0.0104481
0.0104481
0.0104481
0.0225647
0.0222245
0.022121
0.0220383
0.022026
0.0220191
0.0220197
0.0220186
0.0220192
0.0220187
0.0220191
0.0220188
0.022019
0.0220189
0.022019
0.0220189
0.0220189
0.0220189
0.0220189
0.022019
0.0671934
0.0656593
0.0652497
0.0648835
0.0648311
0.0647994
0.0648027
0.0647974
0.0648008
0.0647985
0.0648001
0.0647989
0.0647997
0.064799
0.0647994
0.0647991
0.0647993
0.0647991
0.0647992
0.0647994
0.162689
0.158697
0.157683
0.156742
0.156612
0.156529
0.156539
0.156524
0.156534
0.156527
0.156532
0.156528
0.156531
0.156528
0.15653
0.156529
0.156529
0.156529
0.156529
0.156529
0.321816
0.313981
0.312067
0.310242
0.310001
0.309837
0.309861
0.30983
0.30985
0.309837
0.309847
0.309839
0.309844
0.309839
0.309842
0.30984
0.309841
0.30984
0.309841
0.309841
0.549694
0.53685
0.533835
0.530888
0.530521
0.530251
0.530296
0.530242
0.530278
0.530254
0.530273
0.530257
0.530267
0.530258
0.530264
0.53026
0.530262
0.530261
0.530262
0.530261
0.842945
0.824482
0.820346
0.816182
0.815705
0.815311
0.815389
0.815304
0.815362
0.815324
0.815354
0.815329
0.815344
0.815331
0.815339
0.815333
0.815337
0.815334
0.815336
0.815334
1.19053
1.1666
1.16154
1.15624
1.1557
1.15518
1.1553
1.15518
1.15527
1.15521
1.15525
1.15522
1.15524
1.15522
1.15523
1.15522
1.15523
1.15522
1.15523
1.15522
1.57603
1.54759
1.54201
1.53583
1.53531
1.53467
1.53485
1.53468
1.5348
1.53472
1.53478
1.53473
1.53476
1.53473
1.53475
1.53474
1.53475
1.53474
1.53474
1.53474
1.9807
1.9494
1.94383
1.93715
1.93673
1.93598
1.93624
1.93602
1.93617
1.93607
1.93615
1.93608
1.93612
1.93609
1.93611
1.9361
1.93611
1.9361
1.9361
1.9361
2.38626
2.35423
2.34928
2.34252
2.34231
2.34147
2.3418
2.34152
2.34172
2.34159
2.34169
2.34161
2.34166
2.34162
2.34165
2.34163
2.34164
2.34163
2.34164
2.34163
2.77695
2.74658
2.74285
2.73643
2.7365
2.73558
2.73601
2.73567
2.73592
2.73574
2.73588
2.73577
2.73584
2.73579
2.73583
2.7358
2.73582
2.7358
2.73581
2.7358
3.14053
3.11431
3.11233
3.10659
3.10701
3.10602
3.10656
3.10614
3.10645
3.10623
3.1064
3.10627
3.10635
3.10629
3.10634
3.1063
3.10633
3.10631
3.10632
3.10631
3.46834
3.44879
3.449
3.44418
3.44502
3.44395
3.4446
3.44411
3.44447
3.44421
3.4444
3.44426
3.44436
3.44428
3.44434
3.4443
3.44433
3.44431
3.44432
3.44431
3.7549
3.74453
3.74726
3.7435
3.74478
3.74362
3.7444
3.74382
3.74425
3.74394
3.74417
3.74399
3.74412
3.74403
3.74409
3.74405
3.74408
3.74406
3.74407
3.74406
3.99715
3.99852
4.00398
4.00132
4.00307
4.00177
4.00271
4.00202
4.00252
4.00216
4.00243
4.00223
4.00237
4.00227
4.00234
4.00229
4.00233
4.0023
4.00232
4.00231
4.1937
4.20952
4.21782
4.21619
4.21842
4.21696
4.21806
4.21725
4.21785
4.21741
4.21773
4.21749
4.21767
4.21754
4.21763
4.21757
4.21762
4.21758
4.2176
4.21759
4.34414
4.37745
4.3886
4.38781
4.39053
4.38885
4.39015
4.38919
4.38989
4.38937
4.38975
4.38948
4.38968
4.38954
4.38964
4.38957
4.38962
4.38958
4.38961
4.3896
4.44855
4.50292
4.51686
4.51658
4.51979
4.51783
4.51936
4.51823
4.51905
4.51843
4.51888
4.51856
4.51881
4.51863
4.51876
4.51867
4.51873
4.51869
4.51872
4.51871
4.50709
4.58686
4.60338
4.60314
4.60686
4.60451
4.60632
4.60498
4.60595
4.60521
4.60574
4.60537
4.60566
4.60546
4.60561
4.6055
4.60558
4.60552
4.60556
4.60555
)
;

boundaryField
{
    top
    {
        type            calculated;
        value           nonuniform List<scalar> 
20
(
4.52482
4.6186
4.6363
4.63592
4.63989
4.63732
4.63929
4.63783
4.63889
4.63808
4.63866
4.63826
4.63858
4.63835
4.63851
4.6384
4.63848
4.63842
4.63846
4.63846
)
;
    }
    bottom
    {
        type            symmetryPlane;
    }
    inlet
    {
        type            calculated;
        value           nonuniform List<scalar> 
20
(
0.0104679
0.0224837
0.0668521
0.16182
0.320133
0.546967
0.839066
1.18555
1.57015
1.97423
2.37957
2.77041
3.13446
3.46301
3.75048
3.99373
4.1913
4.34271
4.44791
4.50692
)
;
    }
    outlet
    {
        type            calculated;
        value           nonuniform List<scalar> 
20
(
0.0104481
0.022019
0.0647994
0.156529
0.309841
0.530261
0.815335
1.15523
1.53474
1.9361
2.34163
2.7358
3.10631
3.44431
3.74406
4.00231
4.21759
4.3896
4.51871
4.60555
)
;
    }
    frontAndBack
    {
        type            empty;
    }
}


// ************************************************************************* //
