/*--------------------------------*- C++ -*----------------------------------*\
| =========                 |                                                 |
| \\      /  F ield         | OpenFOAM: The Open Source CFD Toolbox           |
|  \\    /   O peration     | Version:  5.0                                   |
|   \\  /    A nd           | Web:      www.OpenFOAM.org                      |
|    \\/     M anipulation  |                                                 |
\*---------------------------------------------------------------------------*/
FoamFile
{
    version     2.0;
    format      ascii;
    class       volScalarField;
    location    "0.1";
    object      p;
}
// * * * * * * * * * * * * * * * * * * * * * * * * * * * * * * * * * * * * * //

dimensions      [0 2 -2 0 0 0 0];

internalField   nonuniform List<scalar> 
50
(
19.0095
17.0123
15.0086
13.0085
11.0066
9.00576
7.00426
5.00318
3.00181
1.00064
19.0094
17.0122
15.0086
13.0085
11.0066
9.00577
7.00425
5.00318
3.0018
1.00064
19.0091
17.012
15.0086
13.0085
11.0066
9.00576
7.00426
5.00317
3.00181
1.00064
19.009
17.0119
15.0087
13.0085
11.0066
9.00576
7.00426
5.00317
3.00181
1.00064
19.0089
17.012
15.0087
13.0085
11.0066
9.00576
7.00426
5.00317
3.00181
1.00064
)
;

boundaryField
{
    top
    {
        type            zeroGradient;
    }
    bottom
    {
        type            symmetryPlane;
    }
    inlet
    {
        type            fixedValue;
        value           uniform 20;
    }
    outlet
    {
        type            fixedValue;
        value           uniform 0;
    }
    frontAndBack
    {
        type            empty;
    }
}


// ************************************************************************* //
