/*--------------------------------*- C++ -*----------------------------------*\
| =========                 |                                                 |
| \\      /  F ield         | OpenFOAM: The Open Source CFD Toolbox           |
|  \\    /   O peration     | Version:  5.0                                   |
|   \\  /    A nd           | Web:      www.OpenFOAM.org                      |
|    \\/     M anipulation  |                                                 |
\*---------------------------------------------------------------------------*/
FoamFile
{
    version     2.0;
    format      ascii;
    class       surfaceScalarField;
    location    "0.1";
    object      phi;
}
// * * * * * * * * * * * * * * * * * * * * * * * * * * * * * * * * * * * * * //

dimensions      [0 3 -1 0 0 0 0];

internalField   nonuniform List<scalar> 
85
(
0.000205499
4.74974e-08
0.000205456
4.33908e-08
0.000205455
1.2285e-09
0.000205453
1.83468e-09
0.000205454
-8.8997e-10
0.000205453
6.0098e-10
0.000205454
-3.76193e-10
0.000205454
2.3324e-10
0.000205454
-1.47314e-10
8.15592e-11
0.000188944
7.82175e-08
0.000188922
6.58497e-08
0.000188925
-1.2027e-09
0.000188922
4.17351e-09
0.000188924
-2.23054e-09
0.000188923
1.49571e-09
0.000188923
-9.62033e-10
0.000188923
6.36307e-10
0.000188923
-4.32041e-10
2.13511e-10
0.000155902
7.40767e-08
0.00015591
5.77861e-08
0.000155912
-3.65781e-09
0.000155912
4.66e-09
0.000155912
-2.6183e-09
0.000155912
1.73133e-09
0.000155912
-1.11826e-09
0.000155912
7.48953e-10
0.000155912
-5.17898e-10
2.57383e-10
0.000106484
3.73915e-08
0.000106516
2.62638e-08
0.000106515
-3.32436e-09
0.000106517
2.69577e-09
0.000106516
-1.56855e-09
0.000106517
1.02877e-09
0.000106517
-6.6686e-10
0.000106517
4.53828e-10
0.000106517
-3.20722e-10
1.57907e-10
4.08454e-05
4.08717e-05
4.08683e-05
4.0871e-05
4.08695e-05
4.08705e-05
4.08698e-05
4.08703e-05
4.087e-05
)
;

boundaryField
{
    top
    {
        type            calculated;
        value           uniform 0;
    }
    bottom
    {
        type            symmetryPlane;
        value           uniform 0;
    }
    inlet
    {
        type            calculated;
        value           nonuniform List<scalar> 5(-0.000205547 -0.000188975 -0.000155898 -0.000106448 -4.0808e-05);
    }
    outlet
    {
        type            calculated;
        value           nonuniform List<scalar> 5(0.000205454 0.000188923 0.000155912 0.000106517 4.08701e-05);
    }
    frontAndBack
    {
        type            empty;
        value           nonuniform 0();
    }
}


// ************************************************************************* //
