/*--------------------------------*- C++ -*----------------------------------*\
| =========                 |                                                 |
| \\      /  F ield         | OpenFOAM: The Open Source CFD Toolbox           |
|  \\    /   O peration     | Version:  5.0                                   |
|   \\  /    A nd           | Web:      www.OpenFOAM.org                      |
|    \\/     M anipulation  |                                                 |
\*---------------------------------------------------------------------------*/
FoamFile
{
    version     2.0;
    format      ascii;
    class       volScalarField;
    location    "0.1";
    object      shearRate;
}
// * * * * * * * * * * * * * * * * * * * * * * * * * * * * * * * * * * * * * //

dimensions      [0 0 -1 0 0 0 0];

internalField   nonuniform List<scalar> 
400
(
0.0905058
0.0894376
0.0889849
0.0888501
0.088834
0.0888243
0.0888266
0.0888244
0.088826
0.0888249
0.0888255
0.088825
0.0888255
0.0888251
0.0888254
0.0888252
0.0888253
0.0888253
0.0888253
0.0888253
0.270538
0.267233
0.266442
0.266067
0.266026
0.265996
0.266004
0.265997
0.266002
0.265999
0.266001
0.265999
0.266
0.265999
0.266
0.265999
0.266
0.265999
0.266
0.266
0.449077
0.443644
0.442425
0.441818
0.441755
0.441706
0.441719
0.441707
0.441716
0.44171
0.441714
0.441711
0.441713
0.441711
0.441713
0.441712
0.441712
0.441712
0.441712
0.441713
0.624981
0.617557
0.615943
0.615124
0.615045
0.614977
0.614996
0.614979
0.614992
0.614984
0.61499
0.614985
0.614988
0.614985
0.614987
0.614986
0.614986
0.614986
0.614986
0.614986
0.797198
0.787973
0.786025
0.785023
0.784935
0.784849
0.784876
0.784853
0.78487
0.784859
0.784867
0.78486
0.784864
0.784861
0.784863
0.784861
0.784863
0.784862
0.784862
0.784862
0.964709
0.953915
0.951712
0.950561
0.950474
0.95037
0.950406
0.950376
0.950399
0.950385
0.950396
0.950386
0.950392
0.950387
0.95039
0.950388
0.950389
0.950388
0.950389
0.950388
1.12652
1.11445
1.11208
1.11082
1.11075
1.11063
1.11067
1.11064
1.11066
1.11065
1.11066
1.11065
1.11066
1.11065
1.11065
1.11065
1.11065
1.11065
1.11065
1.11065
1.28167
1.26865
1.26624
1.26492
1.26486
1.26473
1.26479
1.26474
1.26478
1.26475
1.26477
1.26476
1.26476
1.26476
1.26476
1.26476
1.26476
1.26476
1.26476
1.26476
1.42923
1.41568
1.41333
1.41199
1.41197
1.41182
1.41189
1.41184
1.41188
1.41185
1.41188
1.41186
1.41187
1.41186
1.41186
1.41186
1.41186
1.41186
1.41186
1.41186
1.56833
1.55469
1.55254
1.55123
1.55126
1.55109
1.55118
1.55111
1.55116
1.55113
1.55116
1.55114
1.55115
1.55114
1.55115
1.55114
1.55114
1.55114
1.55114
1.55114
1.69813
1.68492
1.68309
1.68186
1.68195
1.68177
1.68187
1.68179
1.68185
1.68181
1.68185
1.68182
1.68184
1.68182
1.68183
1.68183
1.68183
1.68183
1.68183
1.68183
1.81785
1.80565
1.80427
1.80316
1.80332
1.80312
1.80325
1.80315
1.80323
1.80318
1.80322
1.80318
1.8032
1.80319
1.8032
1.80319
1.8032
1.80319
1.8032
1.80319
1.92676
1.91621
1.91541
1.91445
1.91471
1.91448
1.91464
1.91452
1.91461
1.91455
1.91459
1.91456
1.91458
1.91456
1.91458
1.91457
1.91457
1.91457
1.91457
1.91457
2.02421
2.016
2.01591
2.01513
2.01549
2.01522
2.01542
2.01528
2.01538
2.01531
2.01536
2.01532
2.01535
2.01533
2.01534
2.01533
2.01534
2.01533
2.01534
2.01533
2.10958
2.1045
2.10521
2.10463
2.10509
2.10479
2.10502
2.10485
2.10498
2.10489
2.10496
2.1049
2.10494
2.10491
2.10493
2.10492
2.10493
2.10492
2.10493
2.10492
2.18233
2.18124
2.18283
2.18244
2.18303
2.18267
2.18295
2.18274
2.18289
2.18279
2.18287
2.18281
2.18285
2.18282
2.18284
2.18282
2.18284
2.18283
2.18283
2.18283
2.242
2.24581
2.24834
2.24812
2.24884
2.24842
2.24876
2.24851
2.24869
2.24856
2.24866
2.24858
2.24864
2.2486
2.24863
2.24861
2.24862
2.24861
2.24862
2.24862
2.28817
2.29792
2.3014
2.30131
2.30218
2.30167
2.30207
2.30178
2.30199
2.30183
2.30195
2.30186
2.30193
2.30188
2.30192
2.30189
2.30191
2.3019
2.3019
2.3019
2.32051
2.33734
2.34175
2.34173
2.34275
2.34213
2.34261
2.34226
2.34252
2.34232
2.34246
2.34237
2.34244
2.34239
2.34243
2.3424
2.34242
2.34241
2.34241
2.34241
2.33879
2.36397
2.36923
2.36917
2.37035
2.3696
2.37018
2.36976
2.37007
2.36983
2.37
2.36988
2.36997
2.36991
2.36996
2.36992
2.36995
2.36993
2.36994
2.36994
)
;

boundaryField
{
    top
    {
        type            zeroGradient;
    }
    bottom
    {
        type            symmetryPlane;
    }
    inlet
    {
        type            zeroGradient;
    }
    outlet
    {
        type            zeroGradient;
    }
    frontAndBack
    {
        type            empty;
    }
}


// ************************************************************************* //
