/*--------------------------------*- C++ -*----------------------------------*\
| =========                 |                                                 |
| \\      /  F ield         | OpenFOAM: The Open Source CFD Toolbox           |
|  \\    /   O peration     | Version:  5.0                                   |
|   \\  /    A nd           | Web:      www.OpenFOAM.org                      |
|    \\/     M anipulation  |                                                 |
\*---------------------------------------------------------------------------*/
FoamFile
{
    version     2.0;
    format      ascii;
    class       volScalarField;
    location    "0.1";
    object      shearRate;
}
// * * * * * * * * * * * * * * * * * * * * * * * * * * * * * * * * * * * * * //

dimensions      [0 0 -1 0 0 0 0];

internalField   nonuniform List<scalar> 
50
(
2.08835
2.08168
2.08258
2.08165
2.08217
2.08184
2.08203
2.08193
2.08198
2.08196
6.25455
6.23712
6.24003
6.23733
6.23891
6.23792
6.2385
6.23818
6.23833
6.23829
10.3905
10.3695
10.3749
10.3707
10.3733
10.3717
10.3727
10.3721
10.3724
10.3723
14.4792
14.4656
14.4744
14.4689
14.4724
14.4702
14.4716
14.4708
14.4712
14.471
18.5093
18.5161
18.5289
18.522
18.5264
18.5236
18.5253
18.5243
18.5249
18.5247
)
;

boundaryField
{
    top
    {
        type            zeroGradient;
    }
    bottom
    {
        type            symmetryPlane;
    }
    inlet
    {
        type            zeroGradient;
    }
    outlet
    {
        type            zeroGradient;
    }
    frontAndBack
    {
        type            empty;
    }
}


// ************************************************************************* //
