/*--------------------------------*- C++ -*----------------------------------*\
| =========                 |                                                 |
| \\      /  F ield         | OpenFOAM: The Open Source CFD Toolbox           |
|  \\    /   O peration     | Version:  5.0                                   |
|   \\  /    A nd           | Web:      www.OpenFOAM.org                      |
|    \\/     M anipulation  |                                                 |
\*---------------------------------------------------------------------------*/
FoamFile
{
    version     2.0;
    format      ascii;
    class       volVectorField;
    location    "0.1";
    object      U;
}
// * * * * * * * * * * * * * * * * * * * * * * * * * * * * * * * * * * * * * //

dimensions      [0 1 -1 0 0 0 0];

internalField   nonuniform List<vector> 
400
(
(0.144549 9.35757e-06 -3.68115e-27)
(0.144137 1.09541e-05 -2.13285e-26)
(0.144122 2.60627e-06 -1.51917e-26)
(0.144049 9.01687e-07 0)
(0.144075 1.32393e-07 0)
(0.144052 4.74222e-08 1.57119e-26)
(0.144068 -5.9318e-09 1.56265e-26)
(0.144056 5.86676e-09 -1.55889e-26)
(0.144065 -7.27981e-09 -1.559e-26)
(0.144058 1.89963e-09 0)
(0.144063 -4.12311e-10 6.39125e-29)
(0.144059 3.79021e-09 0)
(0.144062 -7.0366e-10 0)
(0.14406 1.21614e-09 0)
(0.144061 -7.59343e-10 0)
(0.14406 5.9756e-10 1.58023e-26)
(0.144061 -4.57442e-10 -1.12892e-29)
(0.144061 4.9463e-10 6.84786e-41)
(0.144061 4.18461e-11 -1.41259e-48)
(0.144061 5.1436e-10 -1.58706e-26)
(0.143666 2.80154e-05 -8.15513e-40)
(0.143264 3.26256e-05 -8.32824e-27)
(0.143251 7.68512e-06 1.7857e-27)
(0.14318 2.70314e-06 -1.3224e-26)
(0.143206 3.72144e-07 0)
(0.143183 1.54207e-07 0)
(0.143199 -2.82053e-08 -3.14773e-28)
(0.143187 2.48479e-08 2.71063e-26)
(0.143196 -2.74554e-08 1.71215e-28)
(0.143189 9.52144e-09 -2.69048e-26)
(0.143194 -4.48115e-09 -1.34848e-26)
(0.14319 1.37679e-08 -1.35295e-26)
(0.143193 -3.27177e-09 0)
(0.143191 5.05918e-09 0)
(0.143192 -3.07264e-09 -1.35041e-26)
(0.143191 2.50781e-09 -4.34012e-29)
(0.143192 -1.80306e-09 1.34573e-26)
(0.143192 1.92585e-09 1.34714e-26)
(0.143192 -3.77383e-10 -1.06363e-29)
(0.143192 1.90376e-09 -1.35302e-26)
(0.141903 4.60326e-05 -3.83906e-27)
(0.141524 5.32713e-05 6.9246e-26)
(0.141515 1.24198e-05 1.37691e-26)
(0.141446 4.45411e-06 -1.33381e-26)
(0.141472 5.60307e-07 -1.35638e-26)
(0.141449 2.8061e-07 7.46417e-29)
(0.141465 -6.91904e-08 -3.94562e-29)
(0.141454 5.71361e-08 1.3479e-26)
(0.141462 -5.69209e-08 9.70773e-30)
(0.141456 2.43729e-08 -1.34435e-26)
(0.141461 -1.36786e-08 1.34848e-26)
(0.141457 2.74033e-08 3.73369e-30)
(0.14146 -9.13541e-09 -1.34815e-26)
(0.141458 1.08235e-08 -1.34633e-26)
(0.141459 -7.04691e-09 2.69497e-26)
(0.141458 5.59584e-09 1.34699e-26)
(0.141459 -4.14711e-09 -2.69481e-26)
(0.141458 4.09162e-09 2.4636e-30)
(0.141459 -1.28099e-09 2.74077e-30)
(0.141458 3.75306e-09 -3.32181e-30)
(0.139273 6.27058e-05 -4.35879e-26)
(0.138924 7.226e-05 1.0613e-25)
(0.138923 1.66933e-05 -2.74998e-26)
(0.138858 6.04936e-06 -1.81621e-26)
(0.138884 7.15262e-07 1.35628e-26)
(0.138861 4.01914e-07 1.36513e-26)
(0.138877 -1.12332e-07 1.33642e-26)
(0.138866 9.04885e-08 1.05691e-28)
(0.138874 -8.72262e-08 -1.34987e-26)
(0.138868 3.96523e-08 1.35037e-26)
(0.138873 -2.34912e-08 1.33886e-26)
(0.138869 4.14945e-08 -2.83986e-29)
(0.138872 -1.51152e-08 -3.54149e-29)
(0.13887 1.68321e-08 1.723e-29)
(0.138871 -1.11315e-08 -3.85333e-29)
(0.13887 8.77218e-09 -6.46845e-30)
(0.138871 -6.53487e-09 1.34707e-26)
(0.13887 6.31852e-09 -1.34599e-26)
(0.138871 -2.13543e-09 -1.32415e-29)
(0.13887 5.85378e-09 2.70605e-26)
(0.135789 7.75382e-05 1.34396e-25)
(0.135482 8.90391e-05 -1.01629e-25)
(0.135489 2.03688e-05 -4.11753e-26)
(0.135429 7.42389e-06 -7.58018e-27)
(0.135455 8.35705e-07 2.66297e-26)
(0.135433 5.09766e-07 1.34047e-26)
(0.135449 -1.53734e-07 0)
(0.135437 1.21812e-07 -1.21697e-28)
(0.135446 -1.1562e-07 0)
(0.135439 5.39971e-08 2.69048e-26)
(0.135444 -3.27088e-08 -5.60975e-29)
(0.135441 5.47924e-08 -3.26427e-29)
(0.135443 -2.09281e-08 1.34794e-26)
(0.135441 2.24148e-08 -6.71637e-41)
(0.135442 -1.49954e-08 1.44257e-29)
(0.135442 1.18028e-08 -1.34634e-26)
(0.135442 -8.84749e-09 1.34743e-26)
(0.135442 8.44988e-09 1.34651e-26)
(0.135442 -2.79383e-09 -7.19286e-30)
(0.135442 7.8996e-09 3.78201e-30)
(0.131474 9.00961e-05 -7.667e-27)
(0.131216 0.000103085 -1.47077e-25)
(0.131233 2.33107e-05 2.68857e-26)
(0.131178 8.5333e-06 3.24072e-27)
(0.131205 9.13117e-07 -1.35602e-26)
(0.131183 6.02624e-07 -3.25106e-28)
(0.131199 -1.93841e-07 4.19178e-28)
(0.131187 1.51419e-07 -2.83795e-28)
(0.131196 -1.42226e-07 0)
(0.131189 6.75422e-08 1.33866e-26)
(0.131194 -4.16607e-08 -1.32869e-26)
(0.131191 6.72971e-08 -1.34236e-26)
(0.131193 -2.64555e-08 1.35193e-26)
(0.131191 2.76688e-08 -1.34444e-26)
(0.131192 -1.86569e-08 1.35256e-26)
(0.131192 1.46085e-08 1.34637e-26)
(0.131192 -1.09903e-08 -1.34756e-26)
(0.131192 1.04516e-08 -1.37539e-29)
(0.131192 -3.30878e-09 -1.34655e-26)
(0.131192 9.96074e-09 -1.3527e-26)
(0.126351 9.99987e-05 -5.08702e-40)
(0.12615 0.000113947 7.44394e-26)
(0.126178 2.54134e-05 -1.44989e-28)
(0.126129 9.34327e-06 -6.97758e-27)
(0.126156 9.42027e-07 7.27323e-28)
(0.126135 6.79441e-07 -1.34051e-26)
(0.126151 -2.32922e-07 -1.30218e-26)
(0.126139 1.79391e-07 2.67043e-26)
(0.126148 -1.66812e-07 1.36117e-26)
(0.126141 8.06402e-08 -2.69049e-26)
(0.126146 -5.04876e-08 1.37216e-26)
(0.126143 7.87781e-08 1.35065e-26)
(0.126145 -3.1947e-08 1.35024e-26)
(0.126143 3.25565e-08 -1.34934e-26)
(0.126145 -2.21397e-08 -2.69525e-26)
(0.126144 1.7317e-08 4.04025e-26)
(0.126144 -1.30921e-08 1.79637e-37)
(0.126144 1.23585e-08 -1.34714e-26)
(0.126144 -3.76662e-09 1.34815e-26)
(0.126144 1.19307e-08 -1.09206e-29)
(0.120453 0.000106929 8.51568e-26)
(0.120313 0.000121269 5.3379e-26)
(0.120353 2.66084e-05 -1.36244e-26)
(0.12031 9.83052e-06 7.16297e-27)
(0.120338 9.20801e-07 1.35571e-26)
(0.120317 7.38672e-07 -1.29902e-26)
(0.120333 -2.70152e-07 -1.38094e-26)
(0.120321 2.05317e-07 1.40308e-26)
(0.12033 -1.8895e-07 1.36307e-26)
(0.120324 9.29859e-08 9.15277e-29)
(0.120328 -5.91271e-08 1.32081e-26)
(0.120325 8.89858e-08 1.35139e-26)
(0.120327 -3.71432e-08 -1.35318e-26)
(0.120325 3.70169e-08 -6.11039e-29)
(0.120327 -2.53669e-08 1.34318e-26)
(0.120326 1.97565e-08 1.34814e-26)
(0.120326 -1.49804e-08 1.19676e-37)
(0.120326 1.40849e-08 -1.34626e-26)
(0.120326 -4.20935e-09 1.34824e-26)
(0.120326 1.37285e-08 2.70538e-26)
(0.113813 0.000110655 -9.26492e-26)
(0.113738 0.000124807 -9.52753e-26)
(0.11379 2.68649e-05 1.35854e-26)
(0.113754 9.98534e-06 3.5009e-27)
(0.113782 8.51036e-07 -1.35555e-26)
(0.113762 7.79597e-07 -4.50278e-28)
(0.113777 -3.04807e-07 1.31921e-26)
(0.113766 2.28713e-07 -2.25564e-28)
(0.113774 -2.08091e-07 -1.34985e-26)
(0.113768 1.04572e-07 2.69049e-26)
(0.113772 -6.74438e-08 1.34847e-26)
(0.113769 9.76051e-08 -5.93788e-29)
(0.113771 -4.21375e-08 -2.69588e-26)
(0.11377 4.09473e-08 -1.3398e-26)
(0.113771 -2.82974e-08 2.69775e-26)
(0.11377 2.20013e-08 1.34633e-26)
(0.113771 -1.67558e-08 -1.34756e-26)
(0.11377 1.5627e-08 -2.69525e-26)
(0.113771 -4.65694e-09 1.34626e-26)
(0.11377 1.53264e-08 2.70708e-26)
(0.106471 0.00011104 -9.71716e-26)
(0.106463 0.00012444 -9.48656e-26)
(0.106526 2.61942e-05 1.35457e-26)
(0.106496 9.81265e-06 1.48552e-38)
(0.106524 7.37458e-07 -1.47031e-26)
(0.106505 8.01794e-07 -2.97675e-38)
(0.10652 -3.35659e-07 -1.42508e-26)
(0.106509 2.48971e-07 -2.52854e-28)
(0.106517 -2.23698e-07 2.68284e-26)
(0.106511 1.14995e-07 -1.33342e-26)
(0.106515 -7.52316e-08 -1.33666e-26)
(0.106512 1.04343e-07 1.34615e-26)
(0.106514 -4.66379e-08 2.69921e-26)
(0.106513 4.42372e-08 -1.34669e-26)
(0.106514 -3.08219e-08 -2.69524e-26)
(0.106513 2.38764e-08 1.34694e-26)
(0.106514 -1.82444e-08 2.93329e-44)
(0.106513 1.68963e-08 1.3482e-26)
(0.106514 -5.13756e-09 1.3473e-26)
(0.106513 1.66021e-08 6.00889e-38)
(0.0984697 0.000108061 -9.0812e-26)
(0.0985283 0.000120192 0)
(0.0986013 2.46505e-05 2.34001e-26)
(0.0985778 9.33219e-06 1.614e-26)
(0.0986055 5.87817e-07 -1.35528e-26)
(0.0985871 8.05628e-07 1.39088e-26)
(0.0986011 -3.61578e-07 -4.02382e-28)
(0.0985909 2.65445e-07 -1.28769e-26)
(0.0985984 -2.35219e-07 1.33121e-26)
(0.0985929 1.24032e-07 1.49029e-38)
(0.0985969 -8.22643e-08 -3.92746e-28)
(0.098594 1.08965e-07 -3.58685e-37)
(0.0985962 -5.06132e-08 -2.69964e-26)
(0.0985946 4.67963e-08 -4.20861e-29)
(0.0985957 -3.28842e-08 2.69216e-26)
(0.0985949 2.54111e-08 1.34769e-26)
(0.0985955 -1.94932e-08 -5.98381e-38)
(0.0985951 1.78806e-08 -2.69313e-26)
(0.0985953 -5.67762e-09 5.99604e-38)
(0.0985952 1.75117e-08 2.70743e-26)
(0.0898576 0.000101817 8.47629e-26)
(0.089979 0.000112241 1.29361e-26)
(0.09006 2.23323e-05 2.69405e-26)
(0.0900422 8.57796e-06 -1.33382e-26)
(0.0900694 4.12836e-07 -1.21102e-26)
(0.0900519 7.91557e-07 1.28849e-26)
(0.0900654 -3.80939e-07 8.77641e-28)
(0.0900556 2.77271e-07 -3.07683e-28)
(0.0900628 -2.41986e-07 2.03901e-28)
(0.0900574 1.31185e-07 1.33044e-26)
(0.0900613 -8.81398e-08 -1.33408e-26)
(0.0900585 1.11125e-07 -1.35403e-26)
(0.0900606 -5.37867e-08 1.35224e-26)
(0.0900591 4.84503e-08 -1.3375e-26)
(0.0900602 -3.43381e-08 3.37666e-29)
(0.0900594 2.64604e-08 -8.83601e-30)
(0.09006 -2.0375e-08 5.84566e-41)
(0.0900596 1.84866e-08 1.34461e-26)
(0.0900598 -6.23926e-09 -1.34867e-26)
(0.0900597 1.79962e-08 -1.3518e-26)
(0.0806854 9.25518e-05 -3.80738e-27)
(0.0808633 0.00010094 -1.28925e-26)
(0.0809497 1.93817e-05 3.39269e-26)
(0.0809371 7.59743e-06 -1.41891e-27)
(0.0809632 2.25757e-07 -2.71022e-26)
(0.0809468 7.6037e-07 -5.39027e-28)
(0.0809595 -3.92034e-07 9.48216e-28)
(0.0809502 2.83452e-07 -3.35095e-28)
(0.080957 -2.43342e-07 1.37193e-26)
(0.080952 1.35863e-07 -2.91713e-41)
(0.0809557 -9.24778e-08 3.12852e-28)
(0.080953 1.10639e-07 8.44077e-29)
(0.080955 -5.58992e-08 1.35285e-26)
(0.0809536 4.91006e-08 4.9765e-29)
(0.0809546 -3.50876e-08 -1.34762e-26)
(0.0809539 2.6952e-08 2.69282e-26)
(0.0809544 -2.08213e-08 -1.34743e-26)
(0.080954 1.86806e-08 -1.34852e-26)
(0.0809543 -6.83854e-09 1.34729e-26)
(0.0809542 1.79497e-08 -6.00909e-38)
(0.0710078 8.06636e-05 6.11083e-26)
(0.0712324 8.68277e-05 0)
(0.0713211 1.59817e-05 1.34114e-26)
(0.0713127 6.44965e-06 -1.00812e-27)
(0.0713374 4.18998e-08 -1.35509e-26)
(0.0713222 7.1275e-07 -1.28545e-26)
(0.0713341 -3.9285e-07 -3.00791e-38)
(0.0713254 2.82728e-07 1.37993e-26)
(0.0713318 -2.38422e-07 1.32609e-26)
(0.071327 1.37438e-07 2.91697e-41)
(0.0713305 -9.46288e-08 -2.92394e-41)
(0.071328 1.07106e-07 -1.78931e-28)
(0.0713299 -5.67183e-08 1.34232e-26)
(0.0713285 4.84971e-08 -1.60586e-28)
(0.0713295 -3.49507e-08 -2.69922e-26)
(0.0713288 2.6805e-08 2.69256e-26)
(0.0713293 -2.07905e-08 3.78091e-30)
(0.071329 1.83752e-08 -1.34562e-26)
(0.0713292 -7.36572e-09 1.70379e-29)
(0.0713291 1.7405e-08 -1.35315e-26)
(0.0608823 6.6726e-05 3.578e-26)
(0.0611405 7.06457e-05 7.99718e-28)
(0.0612277 1.23519e-05 0)
(0.0612227 5.20341e-06 2.79562e-42)
(0.0612453 -1.22102e-07 1.53888e-26)
(0.0612316 6.49099e-07 -1.81863e-43)
(0.0612423 -3.81094e-07 -1.51239e-38)
(0.0612344 2.73623e-07 1.34378e-26)
(0.0612402 -2.26445e-07 1.37101e-42)
(0.0612359 1.34842e-07 -1.34527e-26)
(0.061239 -9.3969e-08 -2.69689e-26)
(0.0612368 1.00397e-07 1.33672e-26)
(0.0612385 -5.56948e-08 -5.94919e-38)
(0.0612373 4.64962e-08 -1.79537e-37)
(0.0612382 -3.37529e-08 1.34761e-26)
(0.0612375 2.58059e-08 -1.34695e-26)
(0.061238 -2.00593e-08 1.34841e-26)
(0.0612377 1.7494e-08 -5.98249e-38)
(0.0612379 -7.75728e-09 5.989e-38)
(0.0612378 1.62265e-08 1.35316e-26)
(0.0503695 5.14899e-05 -2.19527e-26)
(0.0506438 5.33352e-05 -1.27988e-26)
(0.0507255 8.73911e-06 1.17247e-41)
(0.0507228 3.93245e-06 -1.63792e-26)
(0.050743 -2.49058e-07 -1.3552e-26)
(0.0507308 5.69346e-07 -6.14658e-28)
(0.0507403 -3.54322e-07 1.49507e-38)
(0.0507333 2.54405e-07 1.30105e-26)
(0.0507384 -2.06247e-07 1.37758e-26)
(0.0507346 1.27273e-07 -2.91715e-41)
(0.0507374 -8.95961e-08 -1.36816e-26)
(0.0507354 8.99809e-08 1.02424e-28)
(0.0507369 -5.26318e-08 2.70346e-26)
(0.0507358 4.27934e-08 1.26626e-28)
(0.0507366 -3.13199e-08 -2.69041e-26)
(0.050736 2.39283e-08 0)
(0.0507364 -1.86727e-08 -9.91644e-30)
(0.0507362 1.597e-08 1.34522e-26)
(0.0507363 -7.9419e-09 -2.19686e-29)
(0.0507363 1.44693e-08 -1.35318e-26)
(0.0395323 3.58746e-05 -3.78469e-27)
(0.0398012 3.60327e-05 -1.2786e-26)
(0.0398728 5.40659e-06 9.96027e-27)
(0.0398716 2.7097e-06 2.55643e-27)
(0.0398885 -3.20306e-07 -2.92349e-26)
(0.0398782 4.71041e-07 0)
(0.0398863 -3.08707e-07 -6.60658e-28)
(0.0398804 2.2206e-07 4.86813e-28)
(0.0398847 -1.76375e-07 1.34978e-26)
(0.0398814 1.1263e-07 1.34527e-26)
(0.0398838 -8.02273e-08 -1.34843e-26)
(0.0398821 7.57531e-08 -1.33466e-26)
(0.0398834 -4.64771e-08 1.33859e-26)
(0.0398825 3.70077e-08 -7.29055e-29)
(0.0398831 -2.719e-08 -1.35317e-26)
(0.0398827 2.07833e-08 1.35012e-26)
(0.039883 -1.61791e-08 2.99777e-38)
(0.0398828 1.36441e-08 2.3116e-29)
(0.0398829 -7.628e-09 1.35006e-26)
(0.0398829 1.18957e-08 -3.00471e-38)
(0.0284358 2.11076e-05 0)
(0.0286728 2.02206e-05 -6.85784e-26)
(0.0287297 2.64879e-06 -1.34076e-26)
(0.0287292 1.60703e-06 -4.97335e-27)
(0.0287423 -3.15284e-07 0)
(0.0287342 3.4881e-07 0)
(0.0287405 -2.3876e-07 1.4149e-26)
(0.0287359 1.72533e-07 2.99263e-38)
(0.0287392 -1.33981e-07 -2.63408e-41)
(0.0287367 8.8853e-08 1.16683e-40)
(0.0287385 -6.38125e-08 -5.97623e-38)
(0.0287372 5.63584e-08 1.35652e-26)
(0.0287382 -3.66302e-08 -5.98594e-38)
(0.0287375 2.84724e-08 0)
(0.0287381 -2.11254e-08 7.52833e-45)
(0.0287377 1.60758e-08 -1.34696e-26)
(0.0287379 -1.25702e-08 -2.07383e-29)
(0.0287378 1.03901e-08 -2.99125e-38)
(0.0287379 -6.6523e-09 -1.34729e-26)
(0.0287379 8.69742e-09 -3.00474e-38)
(0.0171468 9.13133e-06 0)
(0.0173204 8.07844e-06 2.14209e-25)
(0.017358 8.08879e-07 -1.34522e-26)
(0.0173577 7.22313e-07 -1.34314e-26)
(0.0173661 -2.22198e-07 0)
(0.0173608 2.02858e-07 -1.34147e-26)
(0.0173649 -1.4374e-07 -5.86091e-41)
(0.0173619 1.04257e-07 1.34384e-26)
(0.0173641 -7.95094e-08 1.34976e-26)
(0.0173624 5.42974e-08 1.34528e-26)
(0.0173636 -3.94416e-08 -8.53995e-29)
(0.0173628 3.29934e-08 -1.3462e-26)
(0.0173634 -2.22622e-08 -5.986e-38)
(0.017363 1.70883e-08 6.13239e-41)
(0.0173633 -1.26444e-08 -1.3476e-26)
(0.0173631 9.68753e-09 2.6934e-26)
(0.0173632 -7.49241e-09 8.36854e-32)
(0.0173631 6.15922e-09 -1.34781e-26)
(0.0173632 -4.37176e-09 1.34518e-26)
(0.0173632 4.80095e-09 -1.77123e-29)
(0.00573385 2.33462e-06 -5.23559e-27)
(0.0058064 1.91834e-06 6.13404e-26)
(0.00582021 1.36734e-07 2.25892e-26)
(0.00581995 1.92834e-07 -1.30651e-26)
(0.00582305 -7.57752e-08 -9.41455e-27)
(0.00582105 6.36706e-08 -1.28167e-28)
(0.00582258 -4.58487e-08 6.19906e-29)
(0.00582145 3.33959e-08 -4.03293e-29)
(0.00582227 -2.51936e-08 8.1271e-41)
(0.00582164 1.75381e-08 9.33874e-27)
(0.00582209 -1.26972e-08 0)
(0.00582178 1.02927e-08 0)
(0.00582203 -7.23179e-09 8.63895e-30)
(0.00582185 5.44935e-09 0)
(0.00582198 -4.0877e-09 -9.34972e-27)
(0.00582189 3.09991e-09 9.35046e-27)
(0.00582195 -2.44153e-09 -9.35374e-27)
(0.00582191 1.95613e-09 -9.34857e-27)
(0.00582194 -1.495e-09 1.87054e-26)
(0.00582193 1.55219e-09 0)
)
;

boundaryField
{
    top
    {
        type            fixedValue;
        value           uniform (0 0 0);
    }
    bottom
    {
        type            symmetryPlane;
    }
    inlet
    {
        type            pressureInletVelocity;
        value           nonuniform List<vector> 
20
(
(0.144539 0 0)
(0.143657 0 0)
(0.141894 0 0)
(0.139264 0 0)
(0.13578 0 0)
(0.131465 0 0)
(0.126343 0 0)
(0.120444 0 0)
(0.113804 0 0)
(0.106462 0 0)
(0.0984609 0 0)
(0.0898488 0 0)
(0.0806767 0 0)
(0.070999 0 0)
(0.0608736 0 0)
(0.0503608 0 0)
(0.0395236 0 0)
(0.028427 0 0)
(0.0171381 0 0)
(0.00572782 0 0)
)
;
    }
    outlet
    {
        type            inletOutlet;
        inletValue      uniform (1 0 0);
        value           nonuniform List<vector> 
20
(
(0.144061 5.1436e-10 -1.58706e-26)
(0.143192 1.90376e-09 -1.35302e-26)
(0.141458 3.75306e-09 -3.32181e-30)
(0.13887 5.85378e-09 2.70605e-26)
(0.135442 7.8996e-09 3.78201e-30)
(0.131192 9.96074e-09 -1.3527e-26)
(0.126144 1.19307e-08 -1.09206e-29)
(0.120326 1.37285e-08 2.70538e-26)
(0.11377 1.53264e-08 2.70708e-26)
(0.106513 1.66021e-08 6.00889e-38)
(0.0985952 1.75117e-08 2.70743e-26)
(0.0900597 1.79962e-08 -1.3518e-26)
(0.0809542 1.79497e-08 -6.00909e-38)
(0.0713291 1.7405e-08 -1.35315e-26)
(0.0612378 1.62265e-08 1.35316e-26)
(0.0507363 1.44693e-08 -1.35318e-26)
(0.0398829 1.18957e-08 -3.00471e-38)
(0.0287379 8.69742e-09 -3.00474e-38)
(0.0173632 4.80095e-09 -1.77123e-29)
(0.00582193 1.55219e-09 0)
)
;
    }
    frontAndBack
    {
        type            empty;
    }
}


// ************************************************************************* //
