/*--------------------------------*- C++ -*----------------------------------*\
| =========                 |                                                 |
| \\      /  F ield         | OpenFOAM: The Open Source CFD Toolbox           |
|  \\    /   O peration     | Version:  5.0                                   |
|   \\  /    A nd           | Web:      www.OpenFOAM.org                      |
|    \\/     M anipulation  |                                                 |
\*---------------------------------------------------------------------------*/
FoamFile
{
    version     2.0;
    format      ascii;
    class       surfaceScalarField;
    location    "3.7";
    object      phi;
}
// * * * * * * * * * * * * * * * * * * * * * * * * * * * * * * * * * * * * * //

dimensions      [0 3 -1 0 0 0 0];

internalField   nonuniform List<scalar> 
40
(
0.0002
-1.79148e-12
0.0002
-3.49166e-12
0.0002
4.00177e-12
0.0002
1.21787e-11
3.44892e-12
0.000184
-4.03239e-12
0.000184
-4.32305e-12
0.000184
6.09375e-12
0.000184
2.21854e-11
8.60881e-12
0.000152
-6.14853e-12
0.000152
-4.45313e-12
0.000152
7.75705e-12
0.000152
3.20833e-11
1.25288e-11
0.000104
-5.51878e-12
0.000104
-2.54846e-12
0.000104
6.15164e-12
0.000104
2.73645e-11
1.02337e-11
4e-05
4e-05
4e-05
4e-05
)
;

boundaryField
{
    top
    {
        type            calculated;
        value           uniform 0;
    }
    bottom
    {
        type            symmetryPlane;
        value           uniform 0;
    }
    inlet
    {
        type            calculated;
        value           nonuniform List<scalar> 5(-0.0002 -0.000184 -0.000152 -0.000104 -4e-05);
    }
    outlet
    {
        type            calculated;
        value           nonuniform 0();
    }
    frontAndBack
    {
        type            empty;
        value           nonuniform 0();
    }
    procBoundary0to1
    {
        type            processor;
        value           nonuniform List<scalar> 5(0.0002 0.000184 0.000152 0.000104 4e-05);
    }
}


// ************************************************************************* //
