/*--------------------------------*- C++ -*----------------------------------*\
| =========                 |                                                 |
| \\      /  F ield         | OpenFOAM: The Open Source CFD Toolbox           |
|  \\    /   O peration     | Version:  5.0                                   |
|   \\  /    A nd           | Web:      www.OpenFOAM.org                      |
|    \\/     M anipulation  |                                                 |
\*---------------------------------------------------------------------------*/
FoamFile
{
    version     2.0;
    format      ascii;
    class       volVectorField;
    location    "3.7";
    object      U;
}
// * * * * * * * * * * * * * * * * * * * * * * * * * * * * * * * * * * * * * //

dimensions      [0 1 -1 0 0 0 0];

internalField   nonuniform List<vector> 
25
(
(1 -9.33248e-10 -1.72814e-30)
(1 -1.64307e-09 -3.2324e-23)
(1 1.91621e-09 -3.2324e-23)
(1 6.06157e-09 -3.2324e-23)
(1 1.943e-09 -7.7561e-30)
(0.92 -3.07757e-09 -7.11298e-37)
(0.92 -4.16861e-09 2.79794e-23)
(0.92 5.3197e-09 1.24399e-29)
(0.92 1.82079e-08 -2.79794e-23)
(0.92 6.47731e-09 -2.79794e-23)
(0.76 -5.57657e-09 -2.73702e-23)
(0.76 -4.79287e-09 -3.37962e-29)
(0.76 7.60417e-09 2.79794e-23)
(0.76 2.98145e-08 -5.59588e-23)
(0.76 1.1565e-08 -5.59588e-23)
(0.52 -6.41721e-09 5.48443e-23)
(0.52 -3.76346e-09 2.79794e-23)
(0.52 7.66028e-09 -5.59588e-23)
(0.52 3.26393e-08 -2.79798e-23)
(0.52 1.25634e-08 5.59589e-23)
(0.2 -2.74975e-09 3.93808e-23)
(0.2 -1.33973e-09 1.99393e-23)
(0.2 3.18161e-09 -5.98181e-23)
(0.2 1.37646e-08 -1.99394e-23)
(0.2 5.20807e-09 3.98787e-23)
)
;

boundaryField
{
    top
    {
        type            fixedValue;
        value           uniform (0 0 0);
    }
    bottom
    {
        type            symmetryPlane;
    }
    inlet
    {
        type            pressureInletVelocity;
        value           nonuniform List<vector> 5((1 -0 -0) (0.92 -0 -0) (0.76 -0 -0) (0.52 -0 -0) (0.2 -0 -0));
    }
    outlet
    {
        type            inletOutlet;
        inletValue      nonuniform 0();
        value           nonuniform 0();
    }
    frontAndBack
    {
        type            empty;
    }
    procBoundary0to1
    {
        type            processor;
        value           nonuniform List<vector> 5((1 -3.50737e-09 6.46481e-23) (0.92 -1.11654e-08 -2.79794e-23) (0.76 -1.95022e-08 2.79794e-23) (0.52 -2.21484e-08 5.59587e-23) (0.2 -9.50561e-09 3.98788e-23));
    }
}


// ************************************************************************* //
