/*--------------------------------*- C++ -*----------------------------------*\
| =========                 |                                                 |
| \\      /  F ield         | OpenFOAM: The Open Source CFD Toolbox           |
|  \\    /   O peration     | Version:  5.0                                   |
|   \\  /    A nd           | Web:      www.OpenFOAM.org                      |
|    \\/     M anipulation  |                                                 |
\*---------------------------------------------------------------------------*/
FoamFile
{
    version     2.0;
    format      ascii;
    class       volScalarField;
    location    "497";
    object      p;
}
// * * * * * * * * * * * * * * * * * * * * * * * * * * * * * * * * * * * * * //

dimensions      [0 2 -2 0 0 0 0];

internalField   nonuniform List<scalar> 
1568
(
1.10218e-19
1.92439e-18
3.42882e-18
4.36828e-18
5.16995e-18
5.87151e-18
6.46965e-18
7.00673e-18
7.50043e-18
7.96035e-18
8.39742e-18
8.82161e-18
9.23913e-18
9.65368e-18
1.00699e-17
1.04911e-17
1.09188e-17
1.13547e-17
1.17995e-17
1.22536e-17
1.27167e-17
1.31896e-17
1.36525e-17
1.39972e-17
1.4262e-17
1.46082e-17
1.51703e-17
1.59819e-17
1.69035e-17
1.77174e-17
1.82823e-17
1.86312e-17
1.88959e-17
1.92382e-17
1.97001e-17
2.01731e-17
2.06357e-17
2.10899e-17
2.15344e-17
2.197e-17
2.23976e-17
2.28186e-17
2.32345e-17
2.36492e-17
2.40658e-17
2.44898e-17
2.49274e-17
2.53872e-17
2.58788e-17
2.64161e-17
2.70185e-17
2.77121e-17
2.85118e-17
2.94627e-17
3.09585e-17
3.26786e-17
1.05823e-18
2.18337e-18
3.9885e-18
4.75499e-18
5.46441e-18
6.27171e-18
6.86074e-18
7.38893e-18
7.90297e-18
8.3714e-18
8.80358e-18
9.22297e-18
9.63841e-18
1.00433e-17
1.04473e-17
1.08539e-17
1.12638e-17
1.1679e-17
1.21016e-17
1.25322e-17
1.29716e-17
1.34206e-17
1.38916e-17
1.44224e-17
1.49503e-17
1.54309e-17
1.59259e-17
1.63151e-17
1.65776e-17
1.69688e-17
1.74628e-17
1.79407e-17
1.84638e-17
1.89974e-17
1.94689e-17
1.99201e-17
2.03561e-17
2.07892e-17
2.12101e-17
2.16249e-17
2.20356e-17
2.24443e-17
2.28464e-17
2.32521e-17
2.36622e-17
2.40842e-17
2.45234e-17
2.49873e-17
2.54827e-17
2.60331e-17
2.66501e-17
2.7356e-17
2.81379e-17
2.89882e-17
3.06956e-17
3.18327e-17
2.12726e-18
3.1859e-18
4.41317e-18
5.42098e-18
6.21484e-18
6.85272e-18
7.4529e-18
8.03986e-18
8.52479e-18
8.96094e-18
9.41902e-18
9.83674e-18
1.02195e-17
1.06107e-17
1.09986e-17
1.1374e-17
1.17562e-17
1.2141e-17
1.25297e-17
1.29192e-17
1.33165e-17
1.37162e-17
1.41208e-17
1.45289e-17
1.48987e-17
1.5259e-17
1.56999e-17
1.61978e-17
1.66944e-17
1.71878e-17
1.76288e-17
1.79946e-17
1.83709e-17
1.87776e-17
1.91775e-17
1.95742e-17
1.9977e-17
2.03619e-17
2.07513e-17
2.11374e-17
2.15144e-17
2.18868e-17
2.22761e-17
2.26618e-17
2.30604e-17
2.34723e-17
2.39035e-17
2.43629e-17
2.48672e-17
2.54149e-17
2.60091e-17
2.66946e-17
2.75275e-17
2.82771e-17
2.97865e-17
3.078e-17
3.15441e-18
4.02464e-18
5.44211e-18
6.0528e-18
6.7871e-18
7.45312e-18
8.02774e-18
8.56319e-18
9.04583e-18
9.49302e-18
9.90478e-18
1.02929e-17
1.06786e-17
1.10539e-17
1.14098e-17
1.17719e-17
1.21316e-17
1.24876e-17
1.2845e-17
1.32121e-17
1.35781e-17
1.39471e-17
1.43157e-17
1.46874e-17
1.50464e-17
1.54175e-17
1.58121e-17
1.62331e-17
1.66587e-17
1.70822e-17
1.74791e-17
1.78432e-17
1.81981e-17
1.85675e-17
1.89419e-17
1.93096e-17
1.96761e-17
2.00417e-17
2.0399e-17
2.07568e-17
2.11184e-17
2.14827e-17
2.18424e-17
2.22105e-17
2.25911e-17
2.29858e-17
2.33991e-17
2.38503e-17
2.43283e-17
2.4837e-17
2.54483e-17
2.61304e-17
2.67999e-17
2.74918e-17
2.88968e-17
2.97409e-17
4.25125e-18
4.95733e-18
6.20904e-18
6.80082e-18
7.48262e-18
8.11208e-18
8.65678e-18
9.14603e-18
9.59415e-18
1.00249e-17
1.04178e-17
1.07918e-17
1.11522e-17
1.14948e-17
1.18328e-17
1.21694e-17
1.24995e-17
1.28315e-17
1.31641e-17
1.3497e-17
1.38318e-17
1.41706e-17
1.45121e-17
1.48578e-17
1.52021e-17
1.55528e-17
1.59089e-17
1.62671e-17
1.66236e-17
1.69823e-17
1.73389e-17
1.7692e-17
1.80381e-17
1.83829e-17
1.87251e-17
1.90633e-17
1.93952e-17
1.97299e-17
2.00616e-17
2.03907e-17
2.07196e-17
2.1052e-17
2.13889e-17
2.17372e-17
2.20934e-17
2.2468e-17
2.28654e-17
2.32803e-17
2.37323e-17
2.42484e-17
2.47787e-17
2.53496e-17
2.60777e-17
2.67582e-17
2.78679e-17
2.86331e-17
5.42048e-18
6.09291e-18
7.09649e-18
7.70901e-18
8.29221e-18
8.84024e-18
9.35548e-18
9.81327e-18
1.02255e-17
1.06209e-17
1.09893e-17
1.13351e-17
1.16646e-17
1.19855e-17
1.23002e-17
1.26037e-17
1.29046e-17
1.3206e-17
1.35073e-17
1.3806e-17
1.41083e-17
1.4413e-17
1.4718e-17
1.50241e-17
1.53329e-17
1.56423e-17
1.59605e-17
1.62848e-17
1.66093e-17
1.6932e-17
1.72486e-17
1.75588e-17
1.78682e-17
1.81746e-17
1.8477e-17
1.8781e-17
1.90839e-17
1.93832e-17
1.96838e-17
1.99853e-17
2.02869e-17
2.05919e-17
2.0905e-17
2.12231e-17
2.15544e-17
2.19003e-17
2.22616e-17
2.26591e-17
2.30865e-17
2.35184e-17
2.40313e-17
2.46338e-17
2.51882e-17
2.57139e-17
2.68247e-17
2.74723e-17
6.6246e-18
7.2018e-18
8.09081e-18
8.6031e-18
9.13246e-18
9.64059e-18
1.00844e-17
1.04942e-17
1.08852e-17
1.12412e-17
1.15708e-17
1.18848e-17
1.21863e-17
1.24766e-17
1.27566e-17
1.30322e-17
1.33058e-17
1.35744e-17
1.38418e-17
1.41115e-17
1.4381e-17
1.46493e-17
1.49199e-17
1.51924e-17
1.54662e-17
1.5742e-17
1.6022e-17
1.63044e-17
1.65882e-17
1.68723e-17
1.71519e-17
1.7426e-17
1.7699e-17
1.79713e-17
1.82418e-17
1.8511e-17
1.87809e-17
1.90481e-17
1.93151e-17
1.95842e-17
1.98563e-17
2.01318e-17
2.04125e-17
2.07007e-17
2.10011e-17
2.13169e-17
2.16496e-17
2.20018e-17
2.23822e-17
2.28076e-17
2.32585e-17
2.37172e-17
2.42852e-17
2.48355e-17
2.56847e-17
2.6258e-17
7.86752e-18
8.3476e-18
9.12433e-18
9.55976e-18
1.00252e-17
1.04653e-17
1.08531e-17
1.12195e-17
1.15642e-17
1.18737e-17
1.21699e-17
1.24531e-17
1.27202e-17
1.29755e-17
1.32239e-17
1.3468e-17
1.37072e-17
1.39435e-17
1.41788e-17
1.44138e-17
1.46482e-17
1.48837e-17
1.51206e-17
1.53584e-17
1.55966e-17
1.58376e-17
1.60801e-17
1.63241e-17
1.65686e-17
1.68119e-17
1.70554e-17
1.72973e-17
1.7535e-17
1.77723e-17
1.80099e-17
1.82446e-17
1.84779e-17
1.87129e-17
1.89479e-17
1.91837e-17
1.9422e-17
1.96638e-17
1.99118e-17
2.01686e-17
2.04348e-17
2.07136e-17
2.10075e-17
2.13255e-17
2.16662e-17
2.20188e-17
2.2418e-17
2.28774e-17
2.33214e-17
2.37166e-17
2.45337e-17
2.50138e-17
9.14223e-18
9.54767e-18
1.02034e-17
1.05697e-17
1.09575e-17
1.13253e-17
1.16693e-17
1.19849e-17
1.22724e-17
1.25444e-17
1.28024e-17
1.30418e-17
1.32713e-17
1.34937e-17
1.37084e-17
1.39169e-17
1.4121e-17
1.43241e-17
1.45256e-17
1.47245e-17
1.49241e-17
1.51256e-17
1.53256e-17
1.55266e-17
1.57294e-17
1.5933e-17
1.61376e-17
1.63438e-17
1.65502e-17
1.67555e-17
1.69601e-17
1.71634e-17
1.73659e-17
1.75668e-17
1.77667e-17
1.79665e-17
1.8166e-17
1.83655e-17
1.85662e-17
1.87683e-17
1.89726e-17
1.91812e-17
1.93956e-17
1.96161e-17
1.98442e-17
2.00861e-17
2.03422e-17
2.06112e-17
2.09001e-17
2.12187e-17
2.15604e-17
2.19063e-17
2.23174e-17
2.27108e-17
2.33262e-17
2.37347e-17
1.04419e-17
1.07714e-17
1.12958e-17
1.15958e-17
1.19194e-17
1.22241e-17
1.25075e-17
1.27639e-17
1.30013e-17
1.3231e-17
1.34465e-17
1.3645e-17
1.38344e-17
1.40189e-17
1.41959e-17
1.43693e-17
1.45388e-17
1.47057e-17
1.48709e-17
1.50368e-17
1.52008e-17
1.53643e-17
1.55291e-17
1.56949e-17
1.58606e-17
1.60271e-17
1.61946e-17
1.63625e-17
1.65304e-17
1.66992e-17
1.68663e-17
1.70324e-17
1.71981e-17
1.73633e-17
1.75274e-17
1.76911e-17
1.78557e-17
1.80199e-17
1.81846e-17
1.8351e-17
1.852e-17
1.86925e-17
1.88691e-17
1.90521e-17
1.92415e-17
1.94415e-17
1.96523e-17
1.98801e-17
2.01241e-17
2.03733e-17
2.0655e-17
2.09677e-17
2.12873e-17
2.15613e-17
2.21101e-17
2.24355e-17
1.17597e-17
1.20155e-17
1.24189e-17
1.26568e-17
1.29077e-17
1.31435e-17
1.33616e-17
1.3563e-17
1.37563e-17
1.39343e-17
1.40981e-17
1.4256e-17
1.44091e-17
1.45533e-17
1.46916e-17
1.48276e-17
1.49609e-17
1.50914e-17
1.52205e-17
1.53489e-17
1.54777e-17
1.56053e-17
1.57339e-17
1.5862e-17
1.59906e-17
1.61201e-17
1.62511e-17
1.63819e-17
1.65126e-17
1.6643e-17
1.67723e-17
1.69019e-17
1.70309e-17
1.71591e-17
1.72872e-17
1.74149e-17
1.75425e-17
1.76705e-17
1.77993e-17
1.79296e-17
1.80619e-17
1.81965e-17
1.83341e-17
1.84789e-17
1.86303e-17
1.87853e-17
1.89522e-17
1.9129e-17
1.93158e-17
1.9519e-17
1.97463e-17
1.99683e-17
2.02176e-17
2.04677e-17
2.08599e-17
2.11145e-17
1.30929e-17
1.32749e-17
1.35648e-17
1.37323e-17
1.39113e-17
1.40795e-17
1.42378e-17
1.43837e-17
1.4521e-17
1.46406e-17
1.47656e-17
1.48739e-17
1.4981e-17
1.50946e-17
1.51952e-17
1.52917e-17
1.53869e-17
1.54807e-17
1.5574e-17
1.56651e-17
1.57569e-17
1.58484e-17
1.59401e-17
1.60319e-17
1.61249e-17
1.62168e-17
1.63083e-17
1.63994e-17
1.64917e-17
1.65848e-17
1.66781e-17
1.67702e-17
1.68615e-17
1.69525e-17
1.70435e-17
1.71353e-17
1.72259e-17
1.73171e-17
1.74095e-17
1.75026e-17
1.75973e-17
1.76942e-17
1.77934e-17
1.7906e-17
1.80123e-17
1.81201e-17
1.82438e-17
1.83618e-17
1.85026e-17
1.86452e-17
1.87941e-17
1.89666e-17
1.91595e-17
1.93072e-17
1.96005e-17
1.97813e-17
1.44352e-17
1.45455e-17
1.47204e-17
1.48193e-17
1.4928e-17
1.5029e-17
1.51257e-17
1.52146e-17
1.52927e-17
1.5348e-17
1.54871e-17
1.55616e-17
1.55573e-17
1.56448e-17
1.57027e-17
1.57589e-17
1.58169e-17
1.58728e-17
1.5928e-17
1.5983e-17
1.60369e-17
1.60919e-17
1.61458e-17
1.61996e-17
1.62535e-17
1.63084e-17
1.63639e-17
1.64207e-17
1.64761e-17
1.65297e-17
1.65837e-17
1.66381e-17
1.66925e-17
1.67472e-17
1.68011e-17
1.68543e-17
1.69088e-17
1.69634e-17
1.70178e-17
1.70729e-17
1.713e-17
1.71858e-17
1.72432e-17
1.73291e-17
1.73244e-17
1.73984e-17
1.75351e-17
1.75922e-17
1.7667e-17
1.77495e-17
1.78612e-17
1.79554e-17
1.80456e-17
1.81544e-17
1.8331e-17
1.84375e-17
1.57847e-17
1.58226e-17
1.58814e-17
1.59161e-17
1.59539e-17
1.59865e-17
1.60199e-17
1.6052e-17
1.60885e-17
1.61043e-17
1.61468e-17
1.61572e-17
1.6159e-17
1.6217e-17
1.62174e-17
1.62293e-17
1.62485e-17
1.62659e-17
1.62826e-17
1.63006e-17
1.63182e-17
1.63352e-17
1.63523e-17
1.63702e-17
1.63872e-17
1.64047e-17
1.64212e-17
1.64376e-17
1.64547e-17
1.64723e-17
1.64895e-17
1.65068e-17
1.65235e-17
1.65401e-17
1.65576e-17
1.65738e-17
1.65912e-17
1.66079e-17
1.66244e-17
1.6642e-17
1.666e-17
1.66701e-17
1.6671e-17
1.67278e-17
1.67284e-17
1.67389e-17
1.6779e-17
1.67925e-17
1.68321e-17
1.68669e-17
1.6889e-17
1.69102e-17
1.69802e-17
1.70013e-17
1.70491e-17
1.70877e-17
1.71358e-17
1.7103e-17
1.70482e-17
1.70145e-17
1.69815e-17
1.69449e-17
1.69158e-17
1.68822e-17
1.68462e-17
1.68312e-17
1.67869e-17
1.67757e-17
1.67733e-17
1.67141e-17
1.67117e-17
1.66989e-17
1.66781e-17
1.66581e-17
1.66389e-17
1.66193e-17
1.65992e-17
1.65787e-17
1.6559e-17
1.65394e-17
1.65192e-17
1.64986e-17
1.64782e-17
1.64567e-17
1.64355e-17
1.64158e-17
1.63955e-17
1.63747e-17
1.63542e-17
1.63333e-17
1.6313e-17
1.62933e-17
1.62725e-17
1.62518e-17
1.6232e-17
1.62114e-17
1.61904e-17
1.61764e-17
1.61735e-17
1.61138e-17
1.61099e-17
1.60973e-17
1.6054e-17
1.60399e-17
1.5998e-17
1.59563e-17
1.59442e-17
1.59088e-17
1.58522e-17
1.581e-17
1.57762e-17
1.57366e-17
1.84862e-17
1.83823e-17
1.8211e-17
1.81098e-17
1.80078e-17
1.79025e-17
1.7812e-17
1.77214e-17
1.7641e-17
1.7587e-17
1.74472e-17
1.73724e-17
1.73761e-17
1.72869e-17
1.72279e-17
1.71698e-17
1.71098e-17
1.70524e-17
1.69951e-17
1.69372e-17
1.688e-17
1.6824e-17
1.67659e-17
1.67074e-17
1.66493e-17
1.65914e-17
1.65341e-17
1.64776e-17
1.64192e-17
1.636e-17
1.63004e-17
1.62424e-17
1.61848e-17
1.61277e-17
1.60689e-17
1.60119e-17
1.59536e-17
1.58966e-17
1.58384e-17
1.57797e-17
1.5719e-17
1.5661e-17
1.55999e-17
1.55102e-17
1.55134e-17
1.54391e-17
1.52965e-17
1.52382e-17
1.51631e-17
1.50786e-17
1.49704e-17
1.48509e-17
1.4791e-17
1.46778e-17
1.44902e-17
1.43857e-17
1.983e-17
1.96528e-17
1.93673e-17
1.92008e-17
1.90261e-17
1.88514e-17
1.86999e-17
1.85523e-17
1.84148e-17
1.82959e-17
1.81686e-17
1.80598e-17
1.79524e-17
1.78371e-17
1.77362e-17
1.76366e-17
1.75399e-17
1.74436e-17
1.73492e-17
1.72544e-17
1.7161e-17
1.7066e-17
1.69724e-17
1.68781e-17
1.67844e-17
1.6688e-17
1.65916e-17
1.64933e-17
1.63978e-17
1.63014e-17
1.6207e-17
1.6111e-17
1.60158e-17
1.592e-17
1.58263e-17
1.5731e-17
1.56372e-17
1.55416e-17
1.54465e-17
1.53499e-17
1.52524e-17
1.51521e-17
1.50507e-17
1.49347e-17
1.48259e-17
1.47152e-17
1.45886e-17
1.44723e-17
1.43268e-17
1.41708e-17
1.40401e-17
1.38689e-17
1.36578e-17
1.34875e-17
1.32275e-17
1.30426e-17
2.11659e-17
2.09168e-17
2.05119e-17
2.02765e-17
2.0033e-17
1.97897e-17
1.95753e-17
1.93714e-17
1.91799e-17
1.90031e-17
1.88346e-17
1.86783e-17
1.85249e-17
1.83782e-17
1.82381e-17
1.81013e-17
1.79663e-17
1.78333e-17
1.77015e-17
1.75709e-17
1.74401e-17
1.73087e-17
1.71777e-17
1.70455e-17
1.69129e-17
1.67801e-17
1.6648e-17
1.65142e-17
1.63807e-17
1.62461e-17
1.6113e-17
1.59791e-17
1.58473e-17
1.57147e-17
1.55842e-17
1.54517e-17
1.53212e-17
1.51887e-17
1.50574e-17
1.49232e-17
1.47883e-17
1.46491e-17
1.45098e-17
1.43609e-17
1.42078e-17
1.40522e-17
1.38806e-17
1.3697e-17
1.35177e-17
1.33169e-17
1.30771e-17
1.28248e-17
1.26326e-17
1.23829e-17
1.19548e-17
1.17067e-17
2.24869e-17
2.2161e-17
2.16414e-17
2.13357e-17
2.10219e-17
2.07121e-17
2.0436e-17
2.01756e-17
1.99332e-17
1.97089e-17
1.94922e-17
1.92916e-17
1.91001e-17
1.89164e-17
1.87355e-17
1.8563e-17
1.8389e-17
1.82226e-17
1.80517e-17
1.78876e-17
1.77167e-17
1.75537e-17
1.73822e-17
1.72177e-17
1.70443e-17
1.68786e-17
1.67024e-17
1.65355e-17
1.63583e-17
1.61917e-17
1.6015e-17
1.58498e-17
1.56756e-17
1.5512e-17
1.53383e-17
1.51762e-17
1.50036e-17
1.48405e-17
1.4667e-17
1.45019e-17
1.43251e-17
1.4154e-17
1.397e-17
1.37878e-17
1.35931e-17
1.3391e-17
1.31742e-17
1.29596e-17
1.26997e-17
1.24263e-17
1.21908e-17
1.18807e-17
1.15126e-17
1.12063e-17
1.07222e-17
1.03875e-17
2.37906e-17
2.33892e-17
2.27436e-17
2.23698e-17
2.19851e-17
2.16064e-17
2.12744e-17
2.09585e-17
2.06662e-17
2.03942e-17
2.01379e-17
1.98943e-17
1.96654e-17
1.94407e-17
1.92261e-17
1.90132e-17
1.88084e-17
1.86016e-17
1.84008e-17
1.81951e-17
1.79954e-17
1.77899e-17
1.75883e-17
1.73813e-17
1.71782e-17
1.69686e-17
1.67624e-17
1.65506e-17
1.63429e-17
1.61309e-17
1.59245e-17
1.57151e-17
1.55107e-17
1.53034e-17
1.51011e-17
1.48964e-17
1.46945e-17
1.44903e-17
1.4288e-17
1.40817e-17
1.38749e-17
1.36635e-17
1.34478e-17
1.32225e-17
1.29904e-17
1.27514e-17
1.24926e-17
1.2208e-17
1.19255e-17
1.16378e-17
1.12564e-17
1.08526e-17
1.05502e-17
1.01738e-17
9.47905e-18
9.08306e-18
2.507e-17
2.45885e-17
2.38159e-17
2.33774e-17
2.29243e-17
2.24732e-17
2.20849e-17
2.17183e-17
2.13772e-17
2.1061e-17
2.07662e-17
2.04823e-17
2.02169e-17
1.99545e-17
1.97096e-17
1.94595e-17
1.92243e-17
1.89774e-17
1.87483e-17
1.85022e-17
1.82745e-17
1.80248e-17
1.77971e-17
1.75442e-17
1.73149e-17
1.70573e-17
1.68258e-17
1.65629e-17
1.63306e-17
1.60669e-17
1.58376e-17
1.55771e-17
1.53519e-17
1.50947e-17
1.48724e-17
1.46147e-17
1.43939e-17
1.41397e-17
1.39173e-17
1.36611e-17
1.34349e-17
1.3173e-17
1.29355e-17
1.26643e-17
1.24101e-17
1.21142e-17
1.1822e-17
1.15096e-17
1.11768e-17
1.0761e-17
1.0415e-17
1.00145e-17
9.47166e-18
9.00436e-18
8.30567e-18
7.80822e-18
2.63198e-17
2.57514e-17
2.48597e-17
2.43326e-17
2.3819e-17
2.33118e-17
2.28601e-17
2.24489e-17
2.2063e-17
2.17101e-17
2.13708e-17
2.10595e-17
2.07538e-17
2.04682e-17
2.01773e-17
1.9907e-17
1.96252e-17
1.93633e-17
1.90809e-17
1.88216e-17
1.85367e-17
1.82777e-17
1.79894e-17
1.77274e-17
1.74354e-17
1.71707e-17
1.68709e-17
1.65996e-17
1.62946e-17
1.60242e-17
1.57227e-17
1.54592e-17
1.51644e-17
1.49041e-17
1.46121e-17
1.43569e-17
1.40695e-17
1.38107e-17
1.35248e-17
1.32671e-17
1.29797e-17
1.2714e-17
1.24188e-17
1.21371e-17
1.18221e-17
1.15138e-17
1.11783e-17
1.08209e-17
1.04208e-17
1.00454e-17
9.5867e-18
8.99611e-18
8.57279e-18
8.07839e-18
7.11966e-18
6.55703e-18
2.75334e-17
2.6875e-17
2.58422e-17
2.52486e-17
2.46623e-17
2.40945e-17
2.35939e-17
2.31375e-17
2.27122e-17
2.23222e-17
2.19521e-17
2.1608e-17
2.12696e-17
2.09537e-17
2.06338e-17
2.03343e-17
2.00191e-17
1.97272e-17
1.94119e-17
1.91221e-17
1.88017e-17
1.85119e-17
1.81842e-17
1.78944e-17
1.75615e-17
1.72697e-17
1.69243e-17
1.6623e-17
1.62694e-17
1.59696e-17
1.56188e-17
1.53321e-17
1.49916e-17
1.47099e-17
1.43717e-17
1.40956e-17
1.37574e-17
1.34852e-17
1.3155e-17
1.28795e-17
1.25447e-17
1.2266e-17
1.1926e-17
1.16274e-17
1.12723e-17
1.09485e-17
1.05547e-17
1.01805e-17
9.75029e-18
9.2894e-18
8.76582e-18
8.26881e-18
7.63852e-18
6.98457e-18
6.0136e-18
5.34926e-18
2.87027e-17
2.79562e-17
2.67697e-17
2.61285e-17
2.5459e-17
2.4833e-17
2.42992e-17
2.37943e-17
2.3341e-17
2.29159e-17
2.25262e-17
2.21423e-17
2.17932e-17
2.14338e-17
2.1107e-17
2.07553e-17
2.04398e-17
2.00856e-17
1.97752e-17
1.94125e-17
1.9103e-17
1.87297e-17
1.8419e-17
1.80362e-17
1.77237e-17
1.73319e-17
1.70111e-17
1.66062e-17
1.62875e-17
1.58798e-17
1.55673e-17
1.5171e-17
1.48692e-17
1.4476e-17
1.41766e-17
1.37845e-17
1.34924e-17
1.31142e-17
1.2815e-17
1.24393e-17
1.21436e-17
1.17671e-17
1.14607e-17
1.10801e-17
1.07502e-17
1.03459e-17
9.97163e-18
9.53134e-18
9.09329e-18
8.57719e-18
8.0585e-18
7.40497e-18
6.73342e-18
6.15753e-18
4.92715e-18
4.18059e-18
2.98091e-17
2.89501e-17
2.75875e-17
2.68948e-17
2.6172e-17
2.54986e-17
2.49254e-17
2.43953e-17
2.39134e-17
2.34689e-17
2.30504e-17
2.26524e-17
2.2273e-17
2.18984e-17
2.15349e-17
2.11701e-17
2.0814e-17
2.04472e-17
2.00893e-17
1.97163e-17
1.93531e-17
1.89728e-17
1.86068e-17
1.82206e-17
1.78661e-17
1.74811e-17
1.70948e-17
1.66563e-17
1.62386e-17
1.57992e-17
1.54119e-17
1.50169e-17
1.4662e-17
1.42704e-17
1.39139e-17
1.35273e-17
1.3176e-17
1.27858e-17
1.24439e-17
1.20709e-17
1.17306e-17
1.13499e-17
1.1002e-17
1.06136e-17
1.02457e-17
9.83282e-18
9.43294e-18
8.97368e-18
8.49768e-18
7.9541e-18
7.40209e-18
6.71965e-18
6.00177e-18
5.28136e-18
3.93713e-18
3.07906e-18
3.08545e-17
2.98745e-17
2.83438e-17
2.75555e-17
2.67952e-17
2.60781e-17
2.54664e-17
2.49265e-17
2.44194e-17
2.39623e-17
2.35214e-17
2.3117e-17
2.27064e-17
2.23301e-17
2.19302e-17
2.15654e-17
2.11609e-17
2.07986e-17
2.03814e-17
2.00175e-17
1.95834e-17
1.92165e-17
1.87717e-17
1.8402e-17
1.79886e-17
1.76676e-17
1.71715e-17
1.67195e-17
1.61699e-17
1.57222e-17
1.52206e-17
1.49175e-17
1.44948e-17
1.41398e-17
1.36716e-17
1.33264e-17
1.28646e-17
1.25279e-17
1.20862e-17
1.17415e-17
1.13019e-17
1.09714e-17
1.05393e-17
1.01902e-17
9.75205e-18
9.37578e-18
8.90429e-18
8.46897e-18
7.94934e-18
7.42645e-18
6.78899e-18
6.08219e-18
5.34007e-18
4.53553e-18
3.01969e-18
2.03718e-18
3.1907e-17
3.07581e-17
2.90699e-17
2.82019e-17
2.7424e-17
2.67109e-17
2.60989e-17
2.55507e-17
2.50506e-17
2.45855e-17
2.4146e-17
2.37219e-17
2.33097e-17
2.2901e-17
2.24956e-17
2.20859e-17
2.16745e-17
2.1255e-17
2.08307e-17
2.03951e-17
1.9954e-17
1.95e-17
1.90258e-17
1.84877e-17
1.79562e-17
1.74719e-17
1.69747e-17
1.65812e-17
1.63134e-17
1.59191e-17
1.54215e-17
1.49331e-17
1.43991e-17
1.38618e-17
1.3389e-17
1.29347e-17
1.24939e-17
1.20582e-17
1.16314e-17
1.12156e-17
1.08058e-17
1.0395e-17
9.98758e-18
9.58021e-18
9.16616e-18
8.74259e-18
8.30245e-18
7.8383e-18
7.33435e-18
6.78788e-18
6.17885e-18
5.46539e-18
4.68157e-18
3.81902e-18
2.13555e-18
9.86774e-19
3.27523e-17
3.10275e-17
2.95318e-17
2.85794e-17
2.77779e-17
2.70833e-17
2.64806e-17
2.59417e-17
2.54487e-17
2.49876e-17
2.45486e-17
2.41227e-17
2.37044e-17
2.32873e-17
2.28692e-17
2.24453e-17
2.20155e-17
2.15761e-17
2.1129e-17
2.06709e-17
2.02053e-17
1.97278e-17
1.92632e-17
1.89163e-17
1.86486e-17
1.82949e-17
1.77274e-17
1.69082e-17
1.5983e-17
1.51647e-17
1.45989e-17
1.42463e-17
1.39787e-17
1.36301e-17
1.31654e-17
1.26868e-17
1.22214e-17
1.17622e-17
1.1315e-17
1.08746e-17
1.0445e-17
1.00196e-17
9.60161e-18
9.18345e-18
8.76511e-18
8.33795e-18
7.89915e-18
7.43724e-18
6.94392e-18
6.40428e-18
5.80228e-18
5.10771e-18
4.30629e-18
3.3554e-18
1.86186e-18
1.39865e-19
)
;

boundaryField
{
    top
    {
        type            zeroGradient;
    }
    bottom
    {
        type            zeroGradient;
    }
    rotatingWall
    {
        type            zeroGradient;
    }
    wall
    {
        type            zeroGradient;
    }
    frontAndBack
    {
        type            empty;
    }
}


// ************************************************************************* //
