/*--------------------------------*- C++ -*----------------------------------*\
| =========                 |                                                 |
| \\      /  F ield         | OpenFOAM: The Open Source CFD Toolbox           |
|  \\    /   O peration     | Version:  5.0                                   |
|   \\  /    A nd           | Web:      www.OpenFOAM.org                      |
|    \\/     M anipulation  |                                                 |
\*---------------------------------------------------------------------------*/
FoamFile
{
    version     2.0;
    format      ascii;
    class       volScalarField;
    location    "0.2";
    object      nu;
}
// * * * * * * * * * * * * * * * * * * * * * * * * * * * * * * * * * * * * * //

dimensions      [0 2 -1 0 0 0 0];

internalField   nonuniform List<scalar> 
400
(
0.0100007
0.0100006
0.0100006
0.0100006
0.0100006
0.0100006
0.0100006
0.0100006
0.0100006
0.0100006
0.0100006
0.0100006
0.0100006
0.0100006
0.0100006
0.0100006
0.0100006
0.0100006
0.0100006
0.0100006
0.0100173
0.0100168
0.0100167
0.0100166
0.0100166
0.0100166
0.0100166
0.0100166
0.0100166
0.0100166
0.0100166
0.0100166
0.0100166
0.0100166
0.0100166
0.0100166
0.0100166
0.0100166
0.0100166
0.0100166
0.0100791
0.010077
0.0100765
0.010076
0.010076
0.0100759
0.0100759
0.0100759
0.0100759
0.0100759
0.0100759
0.0100759
0.0100759
0.0100759
0.0100759
0.0100759
0.0100759
0.0100759
0.0100759
0.0100759
0.0102131
0.0102078
0.0102065
0.0102052
0.010205
0.0102049
0.0102049
0.0102049
0.0102049
0.0102049
0.0102049
0.0102049
0.0102049
0.0102049
0.0102049
0.0102049
0.0102049
0.0102049
0.0102049
0.0102049
0.0104424
0.0104316
0.010429
0.0104265
0.0104261
0.0104259
0.010426
0.0104259
0.0104259
0.0104259
0.0104259
0.0104259
0.0104259
0.0104259
0.0104259
0.0104259
0.0104259
0.0104259
0.0104259
0.0104259
0.0107842
0.0107655
0.0107613
0.010757
0.0107565
0.0107561
0.0107562
0.0107561
0.0107562
0.0107561
0.0107561
0.0107561
0.0107561
0.0107561
0.0107561
0.0107561
0.0107561
0.0107561
0.0107561
0.0107561
0.0112491
0.0112205
0.0112142
0.0112078
0.0112071
0.0112065
0.0112067
0.0112065
0.0112066
0.0112066
0.0112066
0.0112066
0.0112066
0.0112066
0.0112066
0.0112066
0.0112066
0.0112066
0.0112066
0.0112066
0.0118402
0.0118
0.0117918
0.011783
0.0117822
0.0117813
0.0117815
0.0117813
0.0117814
0.0117813
0.0117814
0.0117814
0.0117814
0.0117814
0.0117814
0.0117814
0.0117814
0.0117814
0.0117814
0.0117814
0.0125528
0.0125005
0.0124906
0.0124794
0.0124785
0.0124773
0.0124776
0.0124773
0.0124776
0.0124774
0.0124775
0.0124774
0.0124775
0.0124774
0.0124775
0.0124774
0.0124775
0.0124774
0.0124775
0.0124774
0.0133744
0.0133108
0.0132999
0.0132865
0.0132857
0.0132842
0.0132848
0.0132843
0.0132846
0.0132844
0.0132846
0.0132844
0.0132845
0.0132845
0.0132845
0.0132845
0.0132845
0.0132845
0.0132845
0.0132845
0.0142853
0.014213
0.0142023
0.0141872
0.0141868
0.0141849
0.0141857
0.0141851
0.0141855
0.0141852
0.0141854
0.0141852
0.0141854
0.0141853
0.0141853
0.0141853
0.0141853
0.0141853
0.0141853
0.0141853
0.0152595
0.015183
0.0151741
0.0151581
0.0151584
0.0151561
0.0151572
0.0151563
0.0151569
0.0151565
0.0151568
0.0151566
0.0151568
0.0151566
0.0151567
0.0151566
0.0151567
0.0151567
0.0151567
0.0151567
0.0162655
0.016192
0.0161868
0.0161709
0.0161722
0.0161694
0.0161709
0.0161697
0.0161706
0.01617
0.0161705
0.0161701
0.0161703
0.0161702
0.0161703
0.0161702
0.0161703
0.0161702
0.0161702
0.0161702
0.0172684
0.0172075
0.0172083
0.0171934
0.0171961
0.0171928
0.0171948
0.0171933
0.0171944
0.0171936
0.0171942
0.0171937
0.0171941
0.0171938
0.017194
0.0171939
0.017194
0.0171939
0.0171939
0.0171939
0.0182311
0.018195
0.0182042
0.0181914
0.0181958
0.0181918
0.0181945
0.0181925
0.018194
0.0181929
0.0181937
0.0181931
0.0181935
0.0181932
0.0181934
0.0181933
0.0181934
0.0181933
0.0181933
0.0181933
0.0191163
0.0191199
0.0191397
0.0191297
0.0191362
0.0191314
0.0191349
0.0191323
0.0191342
0.0191328
0.0191338
0.0191331
0.0191336
0.0191332
0.0191335
0.0191333
0.0191334
0.0191333
0.0191334
0.0191334
0.0198885
0.019949
0.0199813
0.0199744
0.0199833
0.0199774
0.0199819
0.0199786
0.019981
0.0199792
0.0199805
0.0199796
0.0199803
0.0199798
0.0199801
0.0199799
0.0199801
0.0199799
0.01998
0.01998
0.0205155
0.0206521
0.0206981
0.0206942
0.0207057
0.0206985
0.020704
0.0207
0.020703
0.0207007
0.0207023
0.0207012
0.0207021
0.0207014
0.0207019
0.0207016
0.0207018
0.0207016
0.0207017
0.0207017
0.0209701
0.0212041
0.0212642
0.0212623
0.0212765
0.0212677
0.0212745
0.0212695
0.0212731
0.0212703
0.0212723
0.0212709
0.021272
0.0212713
0.0212718
0.0212714
0.0212717
0.0212715
0.0212716
0.0212716
0.0212319
0.0215857
0.0216592
0.0216573
0.0216743
0.0216634
0.0216718
0.0216656
0.0216701
0.0216667
0.0216691
0.0216674
0.0216688
0.0216678
0.0216685
0.021668
0.0216683
0.0216681
0.0216683
0.0216682
)
;

boundaryField
{
    top
    {
        type            calculated;
        value           nonuniform List<scalar> 
20
(
0.0213121
0.0217325
0.0218121
0.0218095
0.0218278
0.0218158
0.021825
0.0218182
0.0218232
0.0218194
0.0218221
0.0218202
0.0218217
0.0218206
0.0218214
0.0218209
0.0218212
0.021821
0.0218211
0.0218211
)
;
    }
    bottom
    {
        type            symmetryPlane;
    }
    inlet
    {
        type            calculated;
        value           nonuniform List<scalar> 
20
(
0.0100006
0.0100172
0.0100786
0.010212
0.0104401
0.0107802
0.011243
0.0118317
0.0125418
0.0133611
0.0142701
0.0152429
0.0162485
0.0172519
0.0182161
0.0191038
0.0198791
0.0205096
0.0209674
0.0212312
)
;
    }
    outlet
    {
        type            calculated;
        value           nonuniform List<scalar> 
20
(
0.0100006
0.0100166
0.0100759
0.0102049
0.0104259
0.0107561
0.0112066
0.0117814
0.0124774
0.0132845
0.0141853
0.0151567
0.0161702
0.0171939
0.0181933
0.0191334
0.01998
0.0207017
0.0212716
0.0216682
)
;
    }
    frontAndBack
    {
        type            empty;
    }
}


// ************************************************************************* //
