/*--------------------------------*- C++ -*----------------------------------*\
| =========                 |                                                 |
| \\      /  F ield         | OpenFOAM: The Open Source CFD Toolbox           |
|  \\    /   O peration     | Version:  5.0                                   |
|   \\  /    A nd           | Web:      www.OpenFOAM.org                      |
|    \\/     M anipulation  |                                                 |
\*---------------------------------------------------------------------------*/
FoamFile
{
    version     2.0;
    format      ascii;
    class       volScalarField;
    location    "0.2";
    object      p;
}
// * * * * * * * * * * * * * * * * * * * * * * * * * * * * * * * * * * * * * //

dimensions      [0 2 -2 0 0 0 0];

internalField   nonuniform List<scalar> 
50
(
18.9923
16.9742
14.9587
12.9374
10.9286
8.86042
6.85415
4.92177
2.95128
1.00055
18.9923
16.9742
14.9587
12.9374
10.9293
8.90399
6.89876
4.92459
2.95153
0.975005
18.9922
16.9742
14.9587
12.9377
10.9293
8.91158
6.90279
4.92446
2.95171
0.976776
18.9922
16.9742
14.9587
12.9378
10.9287
8.90588
6.89542
4.92338
2.95172
0.979819
18.9922
16.9742
14.9586
12.9378
10.9283
8.90076
6.89002
4.92238
2.95149
0.979949
)
;

boundaryField
{
    top
    {
        type            zeroGradient;
    }
    bottom
    {
        type            symmetryPlane;
    }
    inlet
    {
        type            fixedValue;
        value           uniform 20;
    }
    outlet
    {
        type            fixedValue;
        value           uniform 0;
    }
    frontAndBack
    {
        type            empty;
    }
}


// ************************************************************************* //
