/*--------------------------------*- C++ -*----------------------------------*\
| =========                 |                                                 |
| \\      /  F ield         | OpenFOAM: The Open Source CFD Toolbox           |
|  \\    /   O peration     | Version:  5.0                                   |
|   \\  /    A nd           | Web:      www.OpenFOAM.org                      |
|    \\/     M anipulation  |                                                 |
\*---------------------------------------------------------------------------*/
FoamFile
{
    version     2.0;
    format      ascii;
    class       surfaceScalarField;
    location    "0.2";
    object      phi;
}
// * * * * * * * * * * * * * * * * * * * * * * * * * * * * * * * * * * * * * //

dimensions      [0 3 -1 0 0 0 0];

internalField   nonuniform List<scalar> 
760
(
8.02554e-07
9.9078e-10
8.01399e-07
1.15496e-09
8.0113e-07
2.68295e-10
8.01038e-07
9.23537e-11
8.01025e-07
1.35272e-11
8.0102e-07
4.67062e-12
8.0102e-07
-5.08021e-13
8.0102e-07
5.12175e-13
8.01021e-07
-7.17867e-13
8.0102e-07
1.5155e-13
8.0102e-07
9.47724e-15
8.0102e-07
3.8481e-13
8.0102e-07
-4.07511e-14
8.0102e-07
1.17448e-13
8.0102e-07
-6.46635e-14
8.0102e-07
5.43297e-14
8.0102e-07
-3.77695e-14
8.0102e-07
4.74164e-14
8.0102e-07
1.37095e-14
6.23068e-14
7.97662e-07
1.96913e-09
7.96546e-07
2.27113e-09
7.96294e-07
5.20058e-10
7.962e-07
1.86033e-10
7.96191e-07
2.31252e-11
7.96184e-07
1.15886e-11
7.96186e-07
-2.79215e-12
7.96184e-07
2.31406e-12
7.96186e-07
-2.37844e-12
7.96185e-07
9.88969e-13
7.96186e-07
-4.89159e-13
7.96185e-07
1.1463e-12
7.96185e-07
-3.5961e-13
7.96185e-07
4.42648e-13
7.96185e-07
-2.8625e-13
7.96185e-07
2.26332e-13
7.96185e-07
-1.65136e-13
7.96185e-07
1.70479e-13
7.96185e-07
-3.64817e-14
1.68401e-13
7.87923e-07
2.89065e-09
7.86875e-07
3.3188e-09
7.86642e-07
7.5324e-10
7.86555e-07
2.72942e-10
7.86546e-07
3.15838e-11
7.8654e-07
1.81315e-11
7.86542e-07
-5.06009e-12
7.8654e-07
4.07994e-12
7.86542e-07
-4.00805e-12
7.86541e-07
1.80324e-12
7.86542e-07
-9.75695e-13
7.86541e-07
1.89709e-12
7.86541e-07
-6.76996e-13
7.86541e-07
7.61552e-13
7.86541e-07
-5.03766e-13
7.86541e-07
3.94312e-13
7.86541e-07
-2.91704e-13
7.86541e-07
2.90117e-13
7.86541e-07
-7.65961e-14
2.82088e-13
7.73384e-07
3.72857e-09
7.72437e-07
4.26573e-09
7.72231e-07
9.59262e-10
7.72153e-07
3.5007e-10
7.72147e-07
3.83948e-11
7.72141e-07
2.41479e-11
7.72143e-07
-7.31308e-12
7.72141e-07
5.79914e-12
7.72143e-07
-5.58721e-12
7.72142e-07
2.59629e-12
7.72142e-07
-1.45848e-12
7.72142e-07
2.62991e-12
7.72142e-07
-9.90586e-13
7.72142e-07
1.06967e-12
7.72142e-07
-7.16267e-13
7.72142e-07
5.58737e-13
7.72142e-07
-4.15427e-13
7.72142e-07
4.07862e-13
7.72142e-07
-1.10661e-13
3.97037e-13
7.54129e-07
4.4583e-09
7.53312e-07
5.08274e-09
7.53141e-07
1.13074e-09
7.53076e-07
4.14778e-10
7.53071e-07
4.31575e-11
7.53066e-07
2.94928e-11
7.53068e-07
-9.5342e-12
7.53066e-07
7.45541e-12
7.53068e-07
-7.095e-12
7.53067e-07
3.36081e-12
7.53067e-07
-1.93474e-12
7.53067e-07
3.3317e-12
7.53067e-07
-1.29999e-12
7.53067e-07
1.36466e-12
7.53067e-07
-9.21646e-13
7.53067e-07
7.16906e-13
7.53067e-07
-5.35964e-13
7.53067e-07
5.20837e-13
7.53067e-07
-1.37409e-13
5.13899e-13
7.3027e-07
5.05776e-09
7.29609e-07
5.74401e-09
7.29478e-07
1.26156e-09
7.29428e-07
4.64917e-10
7.29426e-07
4.55887e-11
7.29421e-07
3.40462e-11
7.29423e-07
-1.17004e-11
7.29422e-07
9.02912e-12
7.29423e-07
-8.50282e-12
7.29423e-07
4.09548e-12
7.29423e-07
-2.40717e-12
7.29422e-07
3.98582e-12
7.29423e-07
-1.60247e-12
7.29422e-07
1.64158e-12
7.29423e-07
-1.11748e-12
7.29422e-07
8.6743e-13
7.29423e-07
-6.51463e-13
7.29422e-07
6.27878e-13
7.29422e-07
-1.60313e-13
6.27344e-13
7.01946e-07
5.50825e-09
7.01462e-07
6.22826e-09
7.01376e-07
1.34725e-09
7.01342e-07
4.98941e-10
7.01342e-07
4.55373e-11
7.01339e-07
3.77174e-11
7.01341e-07
-1.37805e-11
7.01339e-07
1.05001e-11
7.01341e-07
-9.78566e-12
7.0134e-07
4.79322e-12
7.0134e-07
-2.87299e-12
7.0134e-07
4.57725e-12
7.0134e-07
-1.89466e-12
7.0134e-07
1.89678e-12
7.0134e-07
-1.30128e-12
7.0134e-07
1.00771e-12
7.0134e-07
-7.59963e-13
7.0134e-07
7.26971e-13
7.0134e-07
-1.82113e-13
7.33041e-13
6.6932e-07
5.79504e-09
6.69029e-07
6.51939e-09
6.68991e-07
1.38519e-09
6.68974e-07
5.15981e-10
6.68977e-07
4.30047e-11
6.68974e-07
4.04463e-11
6.68976e-07
-1.57343e-11
6.68975e-07
1.18442e-11
6.68976e-07
-1.09159e-11
6.68975e-07
5.44748e-12
6.68976e-07
-3.32759e-12
6.68975e-07
5.0893e-12
6.68975e-07
-2.17306e-12
6.68975e-07
2.12549e-12
6.68975e-07
-1.4696e-12
6.68975e-07
1.13549e-12
6.68975e-07
-8.59916e-13
6.68975e-07
8.15678e-13
6.68975e-07
-2.04541e-13
8.27502e-13
6.32582e-07
5.90812e-09
6.32494e-07
6.60748e-09
6.32504e-07
1.37482e-09
6.32505e-07
5.15893e-10
6.32509e-07
3.81512e-11
6.32508e-07
4.2201e-11
6.32509e-07
-1.75105e-11
6.32508e-07
1.30335e-11
6.32509e-07
-1.18656e-11
6.32509e-07
6.04602e-12
6.32509e-07
-3.76298e-12
6.32509e-07
5.50704e-12
6.32509e-07
-2.43116e-12
6.32509e-07
2.32269e-12
6.32509e-07
-1.61888e-12
6.32509e-07
1.24752e-12
6.32509e-07
-9.48584e-13
6.32509e-07
8.91803e-13
6.32509e-07
-2.29875e-13
9.05863e-13
5.91944e-07
5.84294e-09
5.92062e-07
6.48958e-09
5.92119e-07
1.31777e-09
5.92136e-07
4.99288e-10
5.92143e-07
3.12981e-11
5.92142e-07
4.29766e-11
5.92143e-07
-1.90468e-11
5.92142e-07
1.40336e-11
5.92143e-07
-1.26044e-11
5.92143e-07
6.57389e-12
5.92143e-07
-4.16665e-12
5.92143e-07
5.81491e-12
5.92143e-07
-2.6621e-12
5.92143e-07
2.48233e-12
5.92143e-07
-1.74424e-12
5.92143e-07
1.34075e-12
5.92143e-07
-1.02373e-12
5.92143e-07
9.52423e-13
5.92143e-07
-2.58834e-13
9.64697e-13
5.47642e-07
5.60118e-09
5.47961e-07
6.17059e-09
5.48061e-07
1.21793e-09
5.48093e-07
4.67531e-10
5.48101e-07
2.29209e-11
5.48101e-07
4.2788e-11
5.48102e-07
-2.0268e-11
5.48102e-07
1.48034e-11
5.48102e-07
-1.30996e-11
5.48102e-07
7.00919e-12
5.48102e-07
-4.52229e-12
5.48102e-07
5.99822e-12
5.48102e-07
-2.8551e-12
5.48102e-07
2.59789e-12
5.48102e-07
-1.84055e-12
5.48102e-07
1.4107e-12
5.48102e-07
-1.08149e-12
5.48102e-07
9.9497e-13
5.48102e-07
-2.92078e-13
9.9945e-13
4.99932e-07
5.19158e-09
5.00439e-07
5.6641e-09
5.00575e-07
1.0815e-09
5.0062e-07
4.22707e-10
5.00629e-07
1.36368e-11
5.0063e-07
4.16636e-11
5.00631e-07
-2.10864e-11
5.00631e-07
1.52922e-11
5.00631e-07
-1.33146e-11
5.00631e-07
7.32542e-12
5.00631e-07
-4.8076e-12
5.00631e-07
6.04153e-12
5.00631e-07
-2.99849e-12
5.00631e-07
2.66133e-12
5.00631e-07
-1.90094e-12
5.00631e-07
1.4531e-12
5.00631e-07
-1.11851e-12
5.00631e-07
1.016e-12
5.00631e-07
-3.28016e-13
1.00757e-12
4.49091e-07
4.63073e-09
4.49762e-07
4.99322e-09
4.49927e-07
9.1685e-10
4.49982e-07
3.67553e-10
4.49991e-07
4.18231e-12
4.49993e-07
3.9633e-11
4.49994e-07
-2.13996e-11
4.49994e-07
1.54387e-11
4.49994e-07
-1.3209e-11
4.49993e-07
7.48664e-12
4.49994e-07
-4.99466e-12
4.49994e-07
5.92986e-12
4.49994e-07
-3.07579e-12
4.49994e-07
2.66371e-12
4.49994e-07
-1.91794e-12
4.49994e-07
1.46172e-12
4.49994e-07
-1.12935e-12
4.49994e-07
1.01238e-12
4.49994e-07
-3.64505e-13
9.85352e-13
3.95414e-07
3.94407e-09
3.96216e-07
4.19141e-09
3.96398e-07
7.34416e-10
3.9646e-07
3.05354e-10
3.96469e-07
-4.61272e-12
3.96472e-07
3.6716e-11
3.96472e-07
-2.10908e-11
3.96472e-07
1.5167e-11
3.96471e-07
-1.2736e-11
3.96471e-07
7.44948e-12
3.96471e-07
-5.0476e-12
3.96472e-07
5.64711e-12
3.96472e-07
-3.06861e-12
3.96472e-07
2.59382e-12
3.96472e-07
-1.88188e-12
3.96472e-07
1.4303e-12
3.96472e-07
-1.10895e-12
3.96472e-07
9.79956e-13
3.96472e-07
-3.96627e-13
9.314e-13
3.39211e-07
3.1668e-09
3.40099e-07
3.30332e-09
3.40287e-07
5.46383e-10
3.40352e-07
2.39803e-10
3.40359e-07
-1.18604e-11
3.40363e-07
3.29057e-11
3.40362e-07
-2.00253e-11
3.40363e-07
1.43849e-11
3.40362e-07
-1.18418e-11
3.40362e-07
7.15803e-12
3.40362e-07
-4.92222e-12
3.40363e-07
5.1766e-12
3.40363e-07
-2.95285e-12
3.40363e-07
2.43876e-12
3.40363e-07
-1.78188e-12
3.40363e-07
1.35016e-12
3.40363e-07
-1.04981e-12
3.40363e-07
9.14553e-13
3.40363e-07
-4.18162e-13
8.4335e-13
2.80807e-07
2.3449e-09
2.81725e-07
2.38552e-09
2.81905e-07
3.66259e-10
2.8197e-07
1.74811e-10
2.81975e-07
-1.66531e-11
2.8198e-07
2.81531e-11
2.81978e-07
-1.80507e-11
2.81979e-07
1.29789e-11
2.81978e-07
-1.04638e-11
2.81978e-07
6.54447e-12
2.81978e-07
-4.56318e-12
2.81979e-07
4.50177e-12
2.81979e-07
-2.70056e-12
2.81979e-07
2.18188e-12
2.81979e-07
-1.60414e-12
2.81979e-07
1.21234e-12
2.81979e-07
-9.44236e-13
2.81979e-07
8.11241e-13
2.81979e-07
-4.2143e-13
7.18904e-13
2.20543e-07
1.53616e-09
2.21421e-07
1.50723e-09
2.21579e-07
2.08358e-10
2.21639e-07
1.14307e-10
2.21641e-07
-1.81051e-11
2.21647e-07
2.23484e-11
2.21643e-07
-1.49936e-11
2.21646e-07
1.0812e-11
2.21644e-07
-8.53055e-12
2.21645e-07
5.52424e-12
2.21644e-07
-3.90239e-12
2.21645e-07
3.60632e-12
2.21645e-07
-2.27703e-12
2.21645e-07
1.80304e-12
2.21645e-07
-1.33276e-12
2.21645e-07
1.00495e-12
2.21645e-07
-7.82835e-13
2.21645e-07
6.64165e-13
2.21645e-07
-3.92376e-13
5.59165e-13
1.58766e-07
8.11485e-10
1.59522e-07
7.51098e-10
1.59643e-07
8.71964e-11
1.59695e-07
6.1988e-11
1.59692e-07
-1.53957e-11
1.597e-07
1.53007e-11
1.59695e-07
-1.06563e-11
1.59698e-07
7.71887e-12
1.59696e-07
-5.95922e-12
1.59697e-07
3.99473e-12
1.59696e-07
-2.85636e-12
1.59697e-07
2.47323e-12
1.59697e-07
-1.64247e-12
1.59697e-07
1.27766e-12
1.59697e-07
-9.48629e-13
1.59697e-07
7.14148e-13
1.59697e-07
-5.55791e-13
1.59697e-07
4.66102e-13
1.59697e-07
-3.12577e-13
3.68022e-13
9.58345e-08
2.56128e-10
9.63717e-08
2.13928e-10
9.64421e-08
1.67365e-11
9.64832e-08
2.09356e-11
9.64756e-08
-7.79767e-12
9.64842e-08
6.69419e-12
9.64783e-08
-4.7947e-12
9.64825e-08
3.48967e-12
9.64792e-08
-2.64279e-12
9.64814e-08
1.8263e-12
9.64799e-08
-1.31906e-12
9.64812e-08
1.07888e-12
9.64804e-08
-7.48225e-13
9.64811e-08
5.7393e-13
9.64805e-08
-4.27564e-13
9.64809e-08
3.21965e-13
9.64806e-08
-2.49621e-13
9.64809e-08
2.08116e-13
9.64807e-08
-1.5547e-13
1.53065e-13
3.20995e-08
3.23134e-08
3.23302e-08
3.23511e-08
3.23433e-08
3.235e-08
3.23452e-08
3.23487e-08
3.2346e-08
3.23479e-08
3.23465e-08
3.23476e-08
3.23469e-08
3.23474e-08
3.2347e-08
3.23473e-08
3.23471e-08
3.23473e-08
3.23471e-08
)
;

boundaryField
{
    top
    {
        type            calculated;
        value           uniform 0;
    }
    bottom
    {
        type            symmetryPlane;
        value           uniform 0;
    }
    inlet
    {
        type            calculated;
        value           nonuniform List<scalar> 
20
(
-8.03544e-07
-7.9864e-07
-7.88844e-07
-7.74221e-07
-7.54859e-07
-7.3087e-07
-7.02397e-07
-6.69607e-07
-6.32695e-07
-5.91879e-07
-5.474e-07
-4.99523e-07
-4.4853e-07
-3.94727e-07
-3.38433e-07
-2.79985e-07
-2.19734e-07
-1.58041e-07
-9.52791e-08
-3.18434e-08
)
;
    }
    outlet
    {
        type            calculated;
        value           nonuniform List<scalar> 
20
(
8.0102e-07
7.96185e-07
7.86541e-07
7.72142e-07
7.53067e-07
7.29422e-07
7.0134e-07
6.68975e-07
6.32509e-07
5.92143e-07
5.48102e-07
5.00631e-07
4.49994e-07
3.96472e-07
3.40363e-07
2.81979e-07
2.21645e-07
1.59697e-07
9.64809e-08
3.23473e-08
)
;
    }
    frontAndBack
    {
        type            empty;
        value           nonuniform 0();
    }
}


// ************************************************************************* //
