/*--------------------------------*- C++ -*----------------------------------*\
| =========                 |                                                 |
| \\      /  F ield         | OpenFOAM: The Open Source CFD Toolbox           |
|  \\    /   O peration     | Version:  5.0                                   |
|   \\  /    A nd           | Web:      www.OpenFOAM.org                      |
|    \\/     M anipulation  |                                                 |
\*---------------------------------------------------------------------------*/
FoamFile
{
    version     2.0;
    format      ascii;
    class       surfaceScalarField;
    location    "0.2";
    object      phi;
}
// * * * * * * * * * * * * * * * * * * * * * * * * * * * * * * * * * * * * * //

dimensions      [0 3 -1 0 0 0 0];

internalField   nonuniform List<scalar> 
85
(
0.000202082
4.16439e-09
0.000202081
7.39385e-10
0.000202079
1.35205e-09
0.000202118
-3.84746e-08
0.000202265
-1.46848e-07
0.000207179
-4.91439e-06
0.000212469
-5.28947e-06
0.00021314
-6.70857e-07
0.000213207
-6.76409e-08
-3.98421e-07
0.000185907
7.80915e-09
0.000185909
-1.20842e-09
0.000185903
6.76453e-09
0.000185933
-6.78076e-08
0.000185882
-9.65989e-08
0.000183813
-2.84526e-06
0.000181765
-3.24113e-06
0.000181636
-5.42116e-07
0.000181687
-1.18241e-07
-2.76022e-07
0.000153563
8.06578e-09
0.000153565
-2.83196e-09
0.000153562
9.94603e-09
0.000153552
-5.82852e-08
0.000153472
-1.65547e-08
0.000151959
-1.33256e-06
0.000150326
-1.60739e-06
0.00015007
-2.86479e-07
0.000150033
-8.1266e-08
-1.4773e-07
0.000105058
4.4811e-09
0.000105058
-2.40454e-09
0.000105061
6.96439e-09
0.000105029
-2.67344e-08
0.000104997
1.56434e-08
0.000104028
-3.63846e-07
0.000102889
-4.67994e-07
0.00010268
-7.71401e-08
0.000102623
-2.40762e-08
-5.11356e-08
4.04009e-05
4.03985e-05
4.04054e-05
4.03787e-05
4.03943e-05
4.00305e-05
3.95625e-05
3.94854e-05
3.94613e-05
)
;

boundaryField
{
    top
    {
        type            calculated;
        value           uniform 0;
    }
    bottom
    {
        type            symmetryPlane;
        value           uniform 0;
    }
    inlet
    {
        type            calculated;
        value           nonuniform List<scalar> 5(-0.000202086 -0.00018591 -0.000153564 -0.000105055 -4.03964e-05);
    }
    outlet
    {
        type            calculated;
        value           nonuniform List<scalar> 5(0.000213606 0.000181564 0.000149905 0.000102526 3.94101e-05);
    }
    frontAndBack
    {
        type            empty;
        value           nonuniform 0();
    }
}


// ************************************************************************* //
