/*--------------------------------*- C++ -*----------------------------------*\
| =========                 |                                                 |
| \\      /  F ield         | OpenFOAM: The Open Source CFD Toolbox           |
|  \\    /   O peration     | Version:  5.0                                   |
|   \\  /    A nd           | Web:      www.OpenFOAM.org                      |
|    \\/     M anipulation  |                                                 |
\*---------------------------------------------------------------------------*/
FoamFile
{
    version     2.0;
    format      ascii;
    class       volScalarField;
    location    "0.2";
    object      shearRate;
}
// * * * * * * * * * * * * * * * * * * * * * * * * * * * * * * * * * * * * * //

dimensions      [0 0 -1 0 0 0 0];

internalField   nonuniform List<scalar> 
50
(
2.02312
2.02251
2.02303
2.02246
2.03934
2.05199
3.81696
3.91251
3.9413
3.99361
6.06861
6.06696
6.06855
6.06609
6.09681
6.07796
7.73022
7.85605
7.89239
7.954
10.112
10.1098
10.1125
10.1071
10.1294
10.0994
9.8593
9.87
9.87948
9.88718
14.1521
14.1501
14.1542
14.1452
14.1607
14.1223
13.8714
13.8298
13.8304
13.8194
18.1884
18.1872
18.1933
18.1798
18.1963
18.153
17.8645
17.7782
17.776
17.7514
)
;

boundaryField
{
    top
    {
        type            zeroGradient;
    }
    bottom
    {
        type            symmetryPlane;
    }
    inlet
    {
        type            zeroGradient;
    }
    outlet
    {
        type            zeroGradient;
    }
    frontAndBack
    {
        type            empty;
    }
}


// ************************************************************************* //
