/*--------------------------------*- C++ -*----------------------------------*\
| =========                 |                                                 |
| \\      /  F ield         | OpenFOAM: The Open Source CFD Toolbox           |
|  \\    /   O peration     | Version:  5.0                                   |
|   \\  /    A nd           | Web:      www.OpenFOAM.org                      |
|    \\/     M anipulation  |                                                 |
\*---------------------------------------------------------------------------*/
FoamFile
{
    version     2.0;
    format      ascii;
    class       volVectorField;
    location    "0.2";
    object      U;
}
// * * * * * * * * * * * * * * * * * * * * * * * * * * * * * * * * * * * * * //

dimensions      [0 1 -1 0 0 0 0];

internalField   nonuniform List<vector> 
400
(
(0.016072 9.94275e-07 -3.77536e-28)
(0.0160281 1.15797e-06 -2.30344e-27)
(0.0160268 2.69881e-07 -1.64514e-27)
(0.0160191 9.34984e-08 0)
(0.0160219 1.33268e-08 0)
(0.0160194 4.9627e-09 1.70299e-27)
(0.0160211 -6.61029e-10 1.69369e-27)
(0.0160199 6.47248e-10 -1.68953e-27)
(0.0160208 -8.12199e-10 -1.68968e-27)
(0.0160201 2.27625e-10 0)
(0.0160206 -2.57634e-11 6.91932e-30)
(0.0160202 4.11543e-10 0)
(0.0160205 -8.45056e-11 0)
(0.0160203 1.34151e-10 0)
(0.0160205 -8.68763e-11 0)
(0.0160204 6.26289e-11 1.71274e-27)
(0.0160204 -5.03293e-11 -1.20533e-30)
(0.0160204 5.72066e-11 7.42232e-42)
(0.0160204 4.88227e-12 -1.55331e-49)
(0.0160204 6.89948e-11 -1.72047e-27)
(0.0159738 2.97702e-06 -8.84493e-41)
(0.015931 3.44925e-06 -8.62911e-28)
(0.01593 7.95736e-07 2.00329e-28)
(0.0159224 2.80475e-07 -1.43219e-27)
(0.0159252 3.73261e-08 0)
(0.0159227 1.62232e-08 0)
(0.0159244 -3.13342e-09 -3.427e-29)
(0.0159232 2.71673e-09 2.938e-27)
(0.0159241 -3.0358e-09 1.86482e-29)
(0.0159234 1.06811e-09 -2.91608e-27)
(0.0159239 -4.37866e-10 -1.4616e-27)
(0.0159235 1.51419e-09 -1.46647e-27)
(0.0159238 -3.5884e-10 0)
(0.0159236 5.48126e-10 0)
(0.0159238 -3.33263e-10 -1.46372e-27)
(0.0159237 2.72603e-10 -4.47747e-30)
(0.0159237 -1.91617e-10 1.4587e-27)
(0.0159237 2.10482e-10 1.46015e-27)
(0.0159237 -1.69805e-11 -1.17977e-30)
(0.0159237 2.22596e-10 -1.46672e-27)
(0.0157778 4.89264e-06 -4.1674e-28)
(0.0157374 5.63264e-06 7.37737e-27)
(0.0157368 1.28572e-06 1.49268e-27)
(0.0157295 4.62504e-07 -1.44587e-27)
(0.0157323 5.58397e-08 -1.47022e-27)
(0.0157298 2.96322e-08 8.79198e-30)
(0.0157316 -7.62591e-09 -4.24083e-30)
(0.0157303 6.24772e-09 1.46131e-27)
(0.0157312 -6.28042e-09 1.07644e-30)
(0.0157305 2.71995e-09 -1.45711e-27)
(0.015731 -1.39906e-09 1.46161e-27)
(0.0157307 2.99638e-09 2.98844e-31)
(0.0157309 -1.01013e-09 -1.46111e-27)
(0.0157307 1.17902e-09 -1.45924e-27)
(0.0157309 -7.7452e-10 2.92101e-27)
(0.0157308 6.07253e-10 1.46037e-27)
(0.0157308 -4.48614e-10 -2.92102e-27)
(0.0157308 4.53499e-10 4.21595e-31)
(0.0157308 -1.09849e-10 2.97474e-31)
(0.0157308 4.4485e-10 -4.09255e-31)
(0.0154854 6.66654e-06 -4.54409e-27)
(0.0154483 7.64202e-06 1.13358e-26)
(0.0154484 1.7281e-06 -2.98126e-27)
(0.0154414 6.28479e-07 -1.97562e-27)
(0.0154443 7.09671e-08 1.47011e-27)
(0.0154418 4.25375e-08 1.48067e-27)
(0.0154436 -1.23566e-08 1.44849e-27)
(0.0154423 9.8848e-09 1.17528e-29)
(0.0154432 -9.61124e-09 -1.46312e-27)
(0.0154426 4.395e-09 1.46355e-27)
(0.0154431 -2.4307e-09 1.45139e-27)
(0.0154427 4.53496e-09 -2.93469e-30)
(0.015443 -1.65777e-09 -3.57527e-30)
(0.0154428 1.83475e-09 1.93211e-30)
(0.0154429 -1.21854e-09 -4.43022e-30)
(0.0154428 9.51096e-10 -9.8017e-31)
(0.0154429 -7.03135e-10 1.45982e-27)
(0.0154428 6.96923e-10 -1.45868e-27)
(0.0154428 -1.88463e-10 -1.43236e-30)
(0.0154428 6.7351e-10 2.93331e-27)
(0.0150981 8.24597e-06 1.41384e-26)
(0.0150653 9.41927e-06 -1.08125e-26)
(0.0150663 2.10881e-06 -4.46398e-27)
(0.0150599 7.71629e-07 -8.13103e-28)
(0.0150628 8.26256e-08 2.88981e-27)
(0.0150603 5.40329e-08 1.45292e-27)
(0.0150621 -1.68897e-08 0)
(0.0150608 1.33054e-08 -1.35663e-29)
(0.0150617 -1.27342e-08 0)
(0.0150611 5.98581e-09 2.91608e-27)
(0.0150616 -3.40137e-09 -5.93894e-30)
(0.0150612 5.98419e-09 -3.35384e-30)
(0.0150615 -2.30266e-09 1.46099e-27)
(0.0150613 2.44381e-09 -7.2798e-42)
(0.0150614 -1.64495e-09 1.67862e-30)
(0.0150613 1.28341e-09 -1.45893e-27)
(0.0150614 -9.58307e-10 1.46045e-27)
(0.0150613 9.332e-10 1.45933e-27)
(0.0150613 -2.52625e-10 -7.63238e-31)
(0.0150613 9.15639e-10 5.3393e-31)
(0.0146184 9.58501e-06 -8.32477e-28)
(0.0145908 1.09092e-05 -1.57181e-26)
(0.0145928 2.41382e-06 2.89372e-27)
(0.0145869 8.87361e-07 3.56471e-28)
(0.0145899 8.99517e-08 -1.46983e-27)
(0.0145875 6.39614e-08 -3.66893e-29)
(0.0145892 -2.12706e-08 4.56407e-29)
(0.0145879 1.65341e-08 -3.16415e-29)
(0.0145888 -1.56573e-08 0)
(0.0145882 7.46857e-09 1.45099e-27)
(0.0145887 -4.34499e-09 -1.44064e-27)
(0.0145883 7.34616e-09 -1.45517e-27)
(0.0145886 -2.90151e-09 1.46491e-27)
(0.0145884 3.01698e-09 -1.45713e-27)
(0.0145885 -2.04406e-09 1.46643e-27)
(0.0145884 1.58513e-09 1.4589e-27)
(0.0145885 -1.1861e-09 -1.46093e-27)
(0.0145884 1.15144e-09 -1.82302e-30)
(0.0145885 -2.9837e-10 -1.45954e-27)
(0.0145884 1.13929e-09 -1.46626e-27)
(0.0140489 1.06431e-05 -5.5316e-41)
(0.0140273 1.20639e-05 7.95016e-27)
(0.0140305 2.63211e-06 -3.93684e-29)
(0.0140251 9.72106e-07 -7.68486e-28)
(0.0140282 9.23832e-08 7.45979e-29)
(0.0140258 7.22214e-08 -1.45296e-27)
(0.0140275 -2.55354e-08 -1.41116e-27)
(0.0140263 1.95857e-08 2.89386e-27)
(0.0140272 -1.83572e-08 1.47546e-27)
(0.0140265 8.91393e-09 -2.91609e-27)
(0.014027 -5.2852e-09 1.48673e-27)
(0.0140266 8.59915e-09 1.46371e-27)
(0.0140269 -3.50829e-09 1.46323e-27)
(0.0140267 3.55004e-09 -1.46263e-27)
(0.0140269 -2.42591e-09 -2.92137e-27)
(0.0140268 1.88451e-09 4.37867e-27)
(0.0140268 -1.41942e-09 1.94704e-38)
(0.0140268 1.35986e-09 -1.46015e-27)
(0.0140268 -3.42966e-10 1.46124e-27)
(0.0140268 1.36966e-09 -1.38369e-30)
(0.0133931 1.13865e-05 8.97008e-27)
(0.013378 1.28457e-05 5.66465e-27)
(0.0133824 2.75656e-06 -1.47725e-27)
(0.0133778 1.02342e-06 7.9041e-28)
(0.0133808 8.97601e-08 1.46948e-27)
(0.0133786 7.86368e-08 -1.40618e-27)
(0.0133802 -2.95843e-08 -1.49698e-27)
(0.013379 2.24133e-08 1.52248e-27)
(0.0133799 -2.07842e-08 1.47753e-27)
(0.0133792 1.02602e-08 9.83363e-30)
(0.0133797 -6.20606e-09 1.43221e-27)
(0.0133794 9.70857e-09 1.46449e-27)
(0.0133796 -4.07153e-09 -1.46615e-27)
(0.0133794 4.03675e-09 -6.85101e-30)
(0.0133796 -2.77925e-09 1.45553e-27)
(0.0133795 2.14663e-09 1.4622e-27)
(0.0133795 -1.62101e-09 1.29714e-38)
(0.0133795 1.54807e-09 -1.45899e-27)
(0.0133795 -3.85486e-10 1.46134e-27)
(0.0133795 1.56316e-09 2.93253e-27)
(0.0126549 1.17899e-05 -9.79214e-27)
(0.0126467 1.3228e-05 -1.02183e-26)
(0.0126523 2.78386e-06 1.47309e-27)
(0.0126484 1.04025e-06 3.87449e-28)
(0.0126514 8.22532e-08 -1.46931e-27)
(0.0126492 8.31371e-08 -5.0723e-29)
(0.0126509 -3.33503e-08 1.42965e-27)
(0.0126497 2.49625e-08 -2.50793e-29)
(0.0126505 -2.28786e-08 -1.4631e-27)
(0.0126499 1.15283e-08 2.9161e-27)
(0.0126504 -7.10448e-09 1.46159e-27)
(0.01265 1.06488e-08 -6.15515e-30)
(0.0126503 -4.61952e-09 -2.92197e-27)
(0.0126501 4.46495e-09 -1.45194e-27)
(0.0126502 -3.09874e-09 2.92427e-27)
(0.0126501 2.39445e-09 1.45873e-27)
(0.0126502 -1.81754e-09 -1.46015e-27)
(0.0126502 1.71432e-09 -2.92158e-27)
(0.0126502 -4.32559e-10 1.45925e-27)
(0.0126502 1.7459e-09 2.9346e-27)
(0.0118385 1.18384e-05 -1.03039e-26)
(0.0118375 1.31976e-05 -1.01881e-26)
(0.0118443 2.71506e-06 1.46884e-27)
(0.011841 1.02307e-06 1.6103e-39)
(0.011844 7.03459e-08 -1.58891e-27)
(0.0118419 8.56592e-08 -3.22643e-39)
(0.0118435 -3.66916e-08 -1.5452e-27)
(0.0118424 2.71716e-08 -2.80823e-29)
(0.0118432 -2.45838e-08 2.90779e-27)
(0.0118426 1.2659e-08 -1.44533e-27)
(0.011843 -7.94716e-09 -1.449e-27)
(0.0118427 1.13785e-08 1.45908e-27)
(0.011843 -5.10808e-09 2.92527e-27)
(0.0118428 4.8258e-09 -1.45966e-27)
(0.0118429 -3.37708e-09 -2.92137e-27)
(0.0118428 2.59725e-09 1.45992e-27)
(0.0118429 -1.97881e-09 -4.50614e-45)
(0.0118428 1.85311e-09 1.46153e-27)
(0.0118429 -4.8726e-10 1.46034e-27)
(0.0118429 1.87969e-09 6.51358e-39)
(0.010949 1.15288e-05 -9.6446e-27)
(0.010955 1.2756e-05 0)
(0.0109628 2.55564e-06 2.56875e-27)
(0.0109602 9.73839e-07 1.75982e-27)
(0.0109632 5.48438e-08 -1.469e-27)
(0.0109612 8.62393e-08 1.50963e-27)
(0.0109627 -3.94935e-08 -4.3945e-29)
(0.0109616 2.89626e-08 -1.39425e-27)
(0.0109624 -2.58335e-08 1.44276e-27)
(0.0109618 1.36353e-08 1.61525e-39)
(0.0109622 -8.71967e-09 -4.19564e-29)
(0.0109619 1.18812e-08 -3.88775e-38)
(0.0109621 -5.5391e-09 -2.92574e-27)
(0.010962 5.10356e-09 -4.70963e-30)
(0.0109621 -3.59975e-09 2.91783e-27)
(0.010962 2.76455e-09 1.46127e-27)
(0.0109621 -2.1147e-09 -6.4857e-39)
(0.010962 1.95649e-09 -2.91881e-27)
(0.010962 -5.48214e-10 6.49912e-39)
(0.010962 1.97773e-09 2.93496e-27)
(0.00999141 1.0871e-05 9.02844e-27)
(0.0100041 1.19213e-05 1.40435e-27)
(0.0100127 2.31571e-06 2.9215e-27)
(0.0100107 8.9605e-07 -1.4458e-27)
(0.0100137 3.6841e-08 -1.31745e-27)
(0.0100118 8.49097e-08 1.39443e-27)
(0.0100132 -4.15793e-08 9.58872e-29)
(0.0100122 3.02512e-08 -3.40846e-29)
(0.0100129 -2.65645e-08 2.22205e-29)
(0.0100124 1.44058e-08 1.4421e-27)
(0.0100128 -9.36963e-09 -1.44619e-27)
(0.0100125 1.21112e-08 -1.46732e-27)
(0.0100127 -5.88537e-09 1.46533e-27)
(0.0100125 5.28788e-09 -1.4494e-27)
(0.0100127 -3.76264e-09 3.85647e-30)
(0.0100126 2.88093e-09 -1.50027e-30)
(0.0100126 -2.21434e-09 6.32861e-42)
(0.0100126 2.02356e-09 1.45693e-27)
(0.0100126 -6.20422e-10 -1.46178e-27)
(0.0100126 2.02346e-09 -1.46516e-27)
(0.00897156 9.8899e-06 -4.1369e-28)
(0.00899034 1.07296e-05 -1.39971e-27)
(0.0089995 2.00992e-06 3.64241e-27)
(0.00899804 7.94562e-07 -1.67259e-28)
(0.00900086 1.77145e-08 -2.93763e-27)
(0.00899907 8.17389e-08 -6.05674e-29)
(0.00900046 -4.27621e-08 1.03627e-28)
(0.00899945 3.0917e-08 -3.70697e-29)
(0.00900019 -2.66932e-08 1.48714e-27)
(0.00899964 1.48944e-08 -3.16174e-42)
(0.00900004 -9.86024e-09 3.35793e-29)
(0.00899975 1.20544e-08 8.8594e-30)
(0.00899997 -6.10738e-09 1.46601e-27)
(0.00899981 5.35752e-09 5.55138e-30)
(0.00899992 -3.84112e-09 -1.46068e-27)
(0.00899984 2.93027e-09 2.91814e-27)
(0.0089999 -2.25837e-09 -1.4613e-27)
(0.00899986 2.04049e-09 -1.46188e-27)
(0.00899988 -6.91882e-10 1.46033e-27)
(0.00899987 2.00554e-09 -6.51363e-39)
(0.00789549 8.62733e-06 6.55976e-27)
(0.0079193 9.23752e-06 0)
(0.00792869 1.65717e-06 1.45441e-27)
(0.00792768 6.75469e-07 -1.40071e-28)
(0.00793035 -9.65865e-10 -1.46878e-27)
(0.00792869 7.6791e-08 -1.39113e-27)
(0.00792998 -4.28333e-08 -3.26026e-39)
(0.00792904 3.08358e-08 1.4964e-27)
(0.00792973 -2.614e-08 1.43725e-27)
(0.00792921 1.50549e-08 3.16157e-42)
(0.00792959 -1.01179e-08 -3.16924e-42)
(0.00792932 1.16634e-08 -1.88156e-29)
(0.00792952 -6.19892e-09 1.45518e-27)
(0.00792937 5.29685e-09 -1.78688e-29)
(0.00792948 -3.83039e-09 -2.92586e-27)
(0.0079294 2.91873e-09 2.91791e-27)
(0.00792946 -2.2616e-09 1.18764e-30)
(0.00792942 2.00903e-09 -1.45829e-27)
(0.00792944 -7.66656e-10 1.79388e-30)
(0.00792944 1.93851e-09 -1.46674e-27)
(0.00676962 7.14365e-06 3.86208e-27)
(0.00679705 7.52277e-06 1.35992e-28)
(0.00680628 1.28031e-06 0)
(0.00680563 5.4587e-07 2.05726e-43)
(0.00680808 -1.74673e-08 1.66313e-27)
(0.00680658 7.0082e-08 -3.09559e-44)
(0.00680775 -4.15317e-08 -1.63926e-39)
(0.00680689 2.98345e-08 1.45647e-27)
(0.00680752 -2.48068e-08 1.48995e-43)
(0.00680705 1.47451e-08 -1.45807e-27)
(0.00680739 -1.00734e-08 -2.92314e-27)
(0.00680715 1.09277e-08 1.44911e-27)
(0.00680733 -6.07696e-09 -6.44811e-39)
(0.0068072 5.07888e-09 -1.94598e-38)
(0.0068073 -3.69754e-09 1.46067e-27)
(0.00680723 2.80339e-09 -1.45993e-27)
(0.00680728 -2.17498e-09 1.46223e-27)
(0.00680724 1.9112e-09 -6.48436e-39)
(0.00680726 -8.19304e-10 6.49149e-39)
(0.00680726 1.78913e-09 1.46675e-27)
(0.00560066 5.51842e-06 -2.41222e-27)
(0.00562988 5.68485e-06 -1.38968e-27)
(0.00563852 9.05021e-07 1.27102e-42)
(0.00563813 4.13419e-07 -1.7358e-27)
(0.0056403 -3.00151e-08 -1.46888e-27)
(0.00563897 6.16058e-08 -6.86131e-29)
(0.00564001 -3.86094e-08 1.6205e-39)
(0.00563925 2.77363e-08 1.40946e-27)
(0.00563981 -2.25813e-08 1.4932e-27)
(0.00563939 1.39043e-08 -3.16176e-42)
(0.00563969 -9.62586e-09 -1.48288e-27)
(0.00563948 9.78326e-09 1.08576e-29)
(0.00563964 -5.74219e-09 2.92997e-27)
(0.00563952 4.68208e-09 1.40194e-29)
(0.00563961 -3.43442e-09 -2.91599e-27)
(0.00563955 2.60131e-09 0)
(0.00563959 -2.02862e-09 -1.38786e-30)
(0.00563956 1.7491e-09 1.45792e-27)
(0.00563958 -8.57997e-10 -2.32544e-30)
(0.00563958 1.58458e-09 -1.46675e-27)
(0.00439563 3.84947e-06 -4.11306e-28)
(0.00442433 3.84438e-06 -1.3883e-27)
(0.0044319 5.58829e-07 1.1414e-27)
(0.00443169 2.85669e-07 2.5454e-28)
(0.00443351 -3.66518e-08 -3.16377e-27)
(0.00443239 5.10639e-08 0)
(0.00443327 -3.36295e-08 -7.21601e-29)
(0.00443262 2.4206e-08 5.3434e-29)
(0.00443309 -1.92922e-08 1.46302e-27)
(0.00443274 1.22922e-08 1.45808e-27)
(0.00443299 -8.64018e-09 -1.46156e-27)
(0.00443281 8.23348e-09 -1.44685e-27)
(0.00443295 -5.06898e-09 1.45102e-27)
(0.00443285 4.04953e-09 -8.04513e-30)
(0.00443293 -2.98503e-09 -1.46682e-27)
(0.00443287 2.25295e-09 1.46368e-27)
(0.00443291 -1.75165e-09 3.24921e-39)
(0.00443289 1.49813e-09 2.63492e-30)
(0.0044329 -8.30224e-10 1.46327e-27)
(0.0044329 1.29365e-09 -3.25685e-39)
(0.00316176 2.26811e-06 0)
(0.00318712 2.15958e-06 -7.25865e-27)
(0.00319313 2.72582e-07 -1.45385e-27)
(0.00319302 1.70079e-07 -5.93095e-28)
(0.00319442 -3.52143e-08 0)
(0.00319355 3.78825e-08 0)
(0.00319423 -2.60131e-08 1.53413e-27)
(0.00319373 1.88057e-08 3.2436e-39)
(0.00319409 -1.46463e-08 -2.85506e-42)
(0.00319382 9.68113e-09 1.26467e-41)
(0.00319402 -6.88078e-09 -6.47759e-39)
(0.00319388 6.11231e-09 1.47012e-27)
(0.00319399 -3.98736e-09 -6.48795e-39)
(0.00319391 3.12428e-09 0)
(0.00319396 -2.31766e-09 8.28594e-46)
(0.00319392 1.74396e-09 -1.45993e-27)
(0.00319395 -1.36308e-09 -2.46113e-30)
(0.00319393 1.14366e-09 -3.24219e-39)
(0.00319394 -7.32635e-10 -1.46032e-27)
(0.00319394 9.29512e-10 -3.25686e-39)
(0.00190653 9.82987e-07 0)
(0.00192513 8.638e-07 2.27861e-26)
(0.0019291 8.2199e-08 -1.4586e-27)
(0.00192902 7.68644e-08 -1.39412e-27)
(0.00192994 -2.44915e-08 0)
(0.00192936 2.20593e-08 -1.45277e-27)
(0.00192981 -1.56579e-08 -6.35255e-42)
(0.00192948 1.13645e-08 1.45654e-27)
(0.00192972 -8.68128e-09 1.463e-27)
(0.00192953 5.91851e-09 1.45809e-27)
(0.00192966 -4.26341e-09 -9.39274e-30)
(0.00192957 3.58036e-09 -1.45913e-27)
(0.00192964 -2.42869e-09 -6.48801e-39)
(0.00192959 1.87239e-09 6.64682e-42)
(0.00192963 -1.39141e-09 -1.46067e-27)
(0.0019296 1.048e-09 2.91909e-27)
(0.00192962 -8.10134e-10 -3.49759e-31)
(0.00192961 6.80973e-10 -1.46087e-27)
(0.00192962 -4.80333e-10 1.45816e-27)
(0.00192962 5.18224e-10 -1.97582e-30)
(0.000637523 2.51681e-07 -5.6906e-28)
(0.000645316 2.05315e-07 6.54291e-27)
(0.000646775 1.35749e-08 2.47265e-27)
(0.000646732 2.06054e-08 -1.4013e-27)
(0.000647067 -8.30959e-09 -1.0204e-27)
(0.000646848 6.92879e-09 -1.37085e-29)
(0.000647016 -4.99523e-09 6.71285e-30)
(0.000646892 3.63887e-09 -4.35221e-30)
(0.000646982 -2.75135e-09 8.80891e-42)
(0.000646913 1.90696e-09 1.01218e-27)
(0.000646962 -1.37136e-09 0)
(0.000646928 1.11338e-09 0)
(0.000646955 -7.85436e-10 9.75929e-31)
(0.000646936 5.99857e-10 0)
(0.00064695 -4.48043e-10 -1.01339e-27)
(0.00064694 3.35586e-10 1.01347e-27)
(0.000646947 -2.64242e-10 -1.01383e-27)
(0.000646942 2.16114e-10 -1.01327e-27)
(0.000646945 -1.65849e-10 2.02748e-27)
(0.000646945 1.60975e-10 0)
)
;

boundaryField
{
    top
    {
        type            fixedValue;
        value           uniform (0 0 0);
    }
    bottom
    {
        type            symmetryPlane;
    }
    inlet
    {
        type            pressureInletVelocity;
        value           nonuniform List<vector> 
20
(
(0.0160709 0 0)
(0.0159728 0 0)
(0.0157769 0 0)
(0.0154844 0 0)
(0.0150972 0 0)
(0.0146174 0 0)
(0.0140479 0 0)
(0.0133921 0 0)
(0.0126539 0 0)
(0.0118376 0 0)
(0.010948 0 0)
(0.00999045 0 0)
(0.00897061 0 0)
(0.00789454 0 0)
(0.00676867 0 0)
(0.00559971 0 0)
(0.00439468 0 0)
(0.00316082 0 0)
(0.00190558 0 0)
(0.000636867 0 0)
)
;
    }
    outlet
    {
        type            inletOutlet;
        inletValue      uniform (1 0 0);
        value           nonuniform List<vector> 
20
(
(0.0160204 6.89948e-11 -1.72047e-27)
(0.0159237 2.22596e-10 -1.46672e-27)
(0.0157308 4.4485e-10 -4.09255e-31)
(0.0154428 6.7351e-10 2.93331e-27)
(0.0150613 9.15639e-10 5.3393e-31)
(0.0145884 1.13929e-09 -1.46626e-27)
(0.0140268 1.36966e-09 -1.38369e-30)
(0.0133795 1.56316e-09 2.93253e-27)
(0.0126502 1.7459e-09 2.9346e-27)
(0.0118429 1.87969e-09 6.51358e-39)
(0.010962 1.97773e-09 2.93496e-27)
(0.0100126 2.02346e-09 -1.46516e-27)
(0.00899987 2.00554e-09 -6.51363e-39)
(0.00792944 1.93851e-09 -1.46674e-27)
(0.00680726 1.78913e-09 1.46675e-27)
(0.00563958 1.58458e-09 -1.46675e-27)
(0.0044329 1.29365e-09 -3.25685e-39)
(0.00319394 9.29512e-10 -3.25686e-39)
(0.00192962 5.18224e-10 -1.97582e-30)
(0.000646945 1.60975e-10 0)
)
;
    }
    frontAndBack
    {
        type            empty;
    }
}


// ************************************************************************* //
