/*--------------------------------*- C++ -*----------------------------------*\
| =========                 |                                                 |
| \\      /  F ield         | OpenFOAM: The Open Source CFD Toolbox           |
|  \\    /   O peration     | Version:  5.0                                   |
|   \\  /    A nd           | Web:      www.OpenFOAM.org                      |
|    \\/     M anipulation  |                                                 |
\*---------------------------------------------------------------------------*/
FoamFile
{
    version     2.0;
    format      ascii;
    class       volVectorField;
    location    "0.2";
    object      U;
}
// * * * * * * * * * * * * * * * * * * * * * * * * * * * * * * * * * * * * * //

dimensions      [0 1 -1 0 0 0 0];

internalField   nonuniform List<vector> 
50
(
(1.01044 2.24494e-06 -3.54704e-27)
(1.0103 2.86897e-07 -3.26022e-23)
(1.0106 9.12776e-07 -3.26321e-23)
(1.00998 -2.07318e-05 -3.25675e-23)
(1.01202 -6.77601e-05 -4.76133e-25)
(1.00923 -0.00100129 6.64707e-23)
(1.06212 0.00117417 8.37026e-23)
(1.06447 -0.00012818 -4.06113e-23)
(1.06594 2.08508e-05 -4.63993e-25)
(1.06761 -0.00508035 2.01006e-23)
(0.929565 6.43481e-06 -7.17078e-37)
(0.929443 -2.39705e-07 2.8209e-23)
(0.929724 4.26249e-06 3.80537e-27)
(0.929124 -5.77115e-05 -2.84395e-23)
(0.930493 -0.000140475 -2.82134e-23)
(0.927972 -0.00421662 1.65445e-23)
(0.909974 -0.00537957 5.32596e-23)
(0.908052 -0.000755227 7.21134e-23)
(0.908366 -0.00012571 -4.71682e-25)
(0.908002 0.0007441 -9.57365e-23)
(0.767831 8.53566e-06 -2.75925e-23)
(0.767745 -2.08954e-06 -4.14033e-26)
(0.767983 8.84563e-06 2.82348e-23)
(0.767459 -6.75024e-05 -5.63712e-23)
(0.768274 -6.62169e-05 -5.63236e-23)
(0.766274 -0.00252731 2.65171e-23)
(0.753113 -0.00293156 3.08089e-23)
(0.750384 -0.000461014 2.97471e-23)
(0.750393 -0.000106592 1.60332e-25)
(0.74964 4.69364e-05 -3.19603e-23)
(0.525287 6.80168e-06 5.52625e-23)
(0.525242 -2.90273e-06 2.81513e-23)
(0.525412 9.24594e-06 -5.64678e-23)
(0.525032 -4.57277e-05 -2.79481e-23)
(0.525507 8.02514e-06 5.72628e-23)
(0.524214 -0.00077613 6.58861e-23)
(0.51582 -0.000902292 3.90196e-23)
(0.513436 -0.000160358 1.81495e-24)
(0.513367 -5.35543e-05 -2.75846e-23)
(0.512696 -0.000160357 -2.80742e-24)
(0.201991 2.40469e-06 3.97032e-23)
(0.201981 -1.2132e-06 2.01066e-23)
(0.202053 3.58982e-06 -6.03625e-23)
(0.201893 -1.45843e-05 -2.00924e-23)
(0.202084 1.01136e-05 4.02479e-23)
(0.201634 -0.000143208 3.81352e-23)
(0.1985 -0.000178436 1.98316e-23)
(0.197426 -3.31416e-05 -4.15125e-25)
(0.197411 -1.37246e-05 0)
(0.197096 -5.5734e-05 0)
)
;

boundaryField
{
    top
    {
        type            fixedValue;
        value           uniform (0 0 0);
    }
    bottom
    {
        type            symmetryPlane;
    }
    inlet
    {
        type            pressureInletVelocity;
        value           nonuniform List<vector> 5((1.01043 0 0) (0.929551 0 0) (0.767818 0 0) (0.525274 0 0) (0.201982 0 0));
    }
    outlet
    {
        type            inletOutlet;
        inletValue      uniform (1 0 0);
        value           nonuniform List<vector> 5((1.06761 -0.00508035 2.01006e-23) (0.908002 0.0007441 -9.57365e-23) (0.74964 4.69364e-05 -3.19603e-23) (0.512696 -0.000160357 -2.80742e-24) (0.197096 -5.5734e-05 0));
    }
    frontAndBack
    {
        type            empty;
    }
}


// ************************************************************************* //
