/*--------------------------------*- C++ -*----------------------------------*\
| =========                 |                                                 |
| \\      /  F ield         | OpenFOAM: The Open Source CFD Toolbox           |
|  \\    /   O peration     | Version:  5.0                                   |
|   \\  /    A nd           | Web:      www.OpenFOAM.org                      |
|    \\/     M anipulation  |                                                 |
\*---------------------------------------------------------------------------*/
FoamFile
{
    version     2.0;
    format      ascii;
    class       volScalarField;
    location    "0.1";
    object      p;
}
// * * * * * * * * * * * * * * * * * * * * * * * * * * * * * * * * * * * * * //

dimensions      [0 2 -2 0 0 0 0];

internalField   nonuniform List<scalar> 
50
(
9.99075
9.98168
9.99513
10.0007
9.99468
9.99075
9.98167
9.99514
10.0007
9.9947
9.99071
9.9817
9.99514
10.0007
9.99476
9.99064
9.98175
9.99515
10.0006
9.99486
9.99056
9.98182
9.99515
10.0006
9.99498
9.99046
9.9819
9.99516
10.0005
9.99514
9.99034
9.982
9.99516
10.0005
9.99532
9.99018
9.98215
9.99515
10.0004
9.99556
9.98998
9.98233
9.99513
10.0003
9.99585
9.98985
9.98247
9.9951
10.0002
9.99603
)
;

boundaryField
{
    top
    {
        type            zeroGradient;
    }
    bottom
    {
        type            symmetryPlane;
    }
    inlet
    {
        type            zeroGradient;
    }
    outlet
    {
        type            fixedValue;
        value           uniform 10;
    }
    frontAndBack
    {
        type            empty;
    }
    procBoundary1to0
    {
        type            processor;
        value           nonuniform List<scalar> 10(9.98061 9.98062 9.98063 9.98066 9.98068 9.98071 9.98075 9.98078 9.98082 9.98082);
    }
}


// ************************************************************************* //
