/*--------------------------------*- C++ -*----------------------------------*\
| =========                 |                                                 |
| \\      /  F ield         | OpenFOAM: The Open Source CFD Toolbox           |
|  \\    /   O peration     | Version:  5.0                                   |
|   \\  /    A nd           | Web:      www.OpenFOAM.org                      |
|    \\/     M anipulation  |                                                 |
\*---------------------------------------------------------------------------*/
FoamFile
{
    version     2.0;
    format      ascii;
    class       surfaceScalarField;
    location    "0.1";
    object      phi;
}
// * * * * * * * * * * * * * * * * * * * * * * * * * * * * * * * * * * * * * //

dimensions      [0 3 -1 0 0 0 0];

internalField   nonuniform List<scalar> 
40
(
0.000205453
6.0098e-10
0.000205454
-3.76193e-10
0.000205454
2.3324e-10
0.000205454
-1.47314e-10
8.15592e-11
0.000188923
1.49571e-09
0.000188923
-9.62033e-10
0.000188923
6.36307e-10
0.000188923
-4.32041e-10
2.13511e-10
0.000155912
1.73133e-09
0.000155912
-1.11826e-09
0.000155912
7.48953e-10
0.000155912
-5.17898e-10
2.57383e-10
0.000106517
1.02877e-09
0.000106517
-6.6686e-10
0.000106517
4.53828e-10
0.000106517
-3.20722e-10
1.57907e-10
4.08705e-05
4.08698e-05
4.08703e-05
4.087e-05
)
;

boundaryField
{
    top
    {
        type            calculated;
        value           uniform 0;
    }
    bottom
    {
        type            symmetryPlane;
        value           uniform 0;
    }
    inlet
    {
        type            calculated;
        value           nonuniform 0();
    }
    outlet
    {
        type            calculated;
        value           nonuniform List<scalar> 5(0.000205454 0.000188923 0.000155912 0.000106517 4.08701e-05);
    }
    frontAndBack
    {
        type            empty;
        value           nonuniform 0();
    }
    procBoundary1to0
    {
        type            processor;
        value           nonuniform List<scalar> 5(-0.000205454 -0.000188924 -0.000155912 -0.000106516 -4.08695e-05);
    }
}


// ************************************************************************* //
