/*--------------------------------*- C++ -*----------------------------------*\
| =========                 |                                                 |
| \\      /  F ield         | OpenFOAM: The Open Source CFD Toolbox           |
|  \\    /   O peration     | Version:  5.0                                   |
|   \\  /    A nd           | Web:      www.OpenFOAM.org                      |
|    \\/     M anipulation  |                                                 |
\*---------------------------------------------------------------------------*/
FoamFile
{
    version     2.0;
    format      ascii;
    class       volScalarField;
    location    "0.1";
    object      shearRate;
}
// * * * * * * * * * * * * * * * * * * * * * * * * * * * * * * * * * * * * * //

dimensions      [0 0 -1 0 0 0 0];

internalField   nonuniform List<scalar> 
50
(
0.00133457
0.00127081
0.00230422
0.00484503
0.00533144
0.00163276
0.00186069
0.00381069
0.00450027
0.00553467
0.00179908
0.00205599
0.0036488
0.00405713
0.00603887
0.00180673
0.00199984
0.00326077
0.00354923
0.00676659
0.00149762
0.00120003
0.0014834
0.00310404
0.00844543
0.00147575
0.00108838
0.0013657
0.0025268
0.00801699
0.00272599
0.00259246
0.0043262
0.00339843
0.0107602
0.00239576
0.00256141
0.00488006
0.00253923
0.00854872
0.00230233
0.00316863
0.00775644
0.00238025
0.00850368
0.00237563
0.00340806
0.00811
0.00284299
0.00781335
)
;

boundaryField
{
    top
    {
        type            zeroGradient;
    }
    bottom
    {
        type            symmetryPlane;
    }
    inlet
    {
        type            zeroGradient;
    }
    outlet
    {
        type            zeroGradient;
    }
    frontAndBack
    {
        type            empty;
    }
    procBoundary1to0
    {
        type            processor;
        value           nonuniform List<scalar> 10(0.00195419 0.00326973 0.00284475 0.002138 0.000181094 0.000589141 0.00555409 0.00608328 0.00844494 0.0081002);
    }
}


// ************************************************************************* //
