/*--------------------------------*- C++ -*----------------------------------*\
| =========                 |                                                 |
| \\      /  F ield         | OpenFOAM: The Open Source CFD Toolbox           |
|  \\    /   O peration     | Version:  5.0                                   |
|   \\  /    A nd           | Web:      www.OpenFOAM.org                      |
|    \\/     M anipulation  |                                                 |
\*---------------------------------------------------------------------------*/
FoamFile
{
    version     2.0;
    format      ascii;
    class       volVectorField;
    location    "0.1";
    object      U;
}
// * * * * * * * * * * * * * * * * * * * * * * * * * * * * * * * * * * * * * //

dimensions      [0 1 -1 0 0 0 0];

internalField   nonuniform List<vector> 
50
(
(1.00728 -3.11344e-06 -2.60579e-27)
(1.00752 -6.28451e-07 -1.03381e-26)
(1.00747 2.40646e-06 3.26499e-26)
(1.00738 7.50827e-06 7.12842e-27)
(1.00707 1.20651e-05 2.06856e-27)
(1.00728 -6.87924e-06 -4.41993e-26)
(1.00752 -1.15548e-06 2.4797e-26)
(1.00749 4.7851e-06 -2.27639e-26)
(1.00738 2.36386e-05 2.79971e-26)
(1.0071 3.26901e-05 1.0101e-25)
(1.00729 -1.02738e-05 1.0547e-25)
(1.00753 -4.28008e-06 -8.68236e-26)
(1.0075 9.27714e-06 -3.94299e-26)
(1.00739 3.87168e-05 -6.29417e-26)
(1.00713 5.30394e-05 -1.5325e-25)
(1.0073 -1.22046e-05 1.4879e-25)
(1.00753 -7.14554e-06 -1.23604e-25)
(1.00752 1.27147e-05 -9.97739e-27)
(1.0074 5.31223e-05 -2.96475e-28)
(1.00717 7.06996e-05 -2.29574e-25)
(1.0073 -1.35627e-05 -2.32764e-27)
(1.00753 -1.07599e-05 -4.69734e-27)
(1.00752 1.62135e-05 8.81738e-27)
(1.0074 6.56599e-05 0)
(1.00721 8.69013e-05 0)
(1.00729 -1.49915e-05 -3.71066e-39)
(1.00752 -1.33831e-05 3.66703e-25)
(1.0075 1.95237e-05 9.66108e-27)
(1.0074 7.61443e-05 0)
(1.00724 0.000101362 0)
(1.00729 -1.47917e-05 2.87229e-25)
(1.00752 -1.72359e-05 5.06927e-25)
(1.0075 2.24024e-05 -4.36119e-26)
(1.0074 8.51991e-05 -1.5529e-25)
(1.00728 0.000112956 0)
(1.00727 -1.73741e-05 7.34831e-25)
(1.00749 -1.76785e-05 -3.29206e-25)
(1.00743 2.53785e-05 7.84911e-26)
(1.00737 9.08649e-05 -1.89495e-25)
(1.00725 0.000125359 -8.86049e-27)
(1.00726 -2.02805e-05 -3.31796e-25)
(1.00748 -1.7464e-05 -3.28787e-25)
(1.00742 2.7431e-05 -4.85414e-26)
(1.00738 9.56074e-05 7.3733e-28)
(1.00728 0.000137945 -4.90346e-25)
(1.00724 -2.45226e-05 -1.70013e-25)
(1.00745 -1.46546e-05 2.03282e-26)
(1.00733 2.88589e-05 -8.32788e-26)
(1.00735 9.95751e-05 -5.36334e-27)
(1.00722 0.00014895 -2.65036e-25)
)
;

boundaryField
{
    top
    {
        type            zeroGradient;
    }
    bottom
    {
        type            symmetryPlane;
    }
    inlet
    {
        type            pressureInletVelocity;
        value           nonuniform 0();
    }
    outlet
    {
        type            inletOutlet;
        inletValue      uniform (1 0 0);
        value           nonuniform List<vector> 10((1.00707 1.20651e-05 2.06856e-27) (1.0071 3.26901e-05 1.0101e-25) (1.00713 5.30394e-05 -1.5325e-25) (1.00717 7.06996e-05 -2.29574e-25) (1.00721 8.69013e-05 0) (1.00724 0.000101362 0) (1.00728 0.000112956 0) (1.00725 0.000125359 -8.86049e-27) (1.00728 0.000137945 -4.90346e-25) (1.00722 0.00014895 -2.65036e-25));
    }
    frontAndBack
    {
        type            empty;
    }
    procBoundary1to0
    {
        type            processor;
        value           nonuniform List<vector> 10((1.00757 1.11621e-06 -9.36059e-27) (1.00759 4.95956e-07 2.10393e-26) (1.00761 1.90044e-06 4.19507e-26) (1.00762 2.08843e-06 -9.35447e-26) (1.00763 2.7663e-06 -1.01451e-25) (1.00763 3.37555e-06 2.05542e-26) (1.00763 3.8608e-06 7.00188e-26) (1.00757 4.92051e-06 -6.01906e-26) (1.00756 5.9256e-06 4.24737e-26) (1.00747 6.35865e-06 1.25247e-26));
    }
}


// ************************************************************************* //
