/*--------------------------------*- C++ -*----------------------------------*\
| =========                 |                                                 |
| \\      /  F ield         | OpenFOAM: The Open Source CFD Toolbox           |
|  \\    /   O peration     | Version:  5.0                                   |
|   \\  /    A nd           | Web:      www.OpenFOAM.org                      |
|    \\/     M anipulation  |                                                 |
\*---------------------------------------------------------------------------*/
FoamFile
{
    version     2.0;
    format      ascii;
    class       volScalarField;
    location    "260";
    object      p;
}
// * * * * * * * * * * * * * * * * * * * * * * * * * * * * * * * * * * * * * //

dimensions      [0 2 -2 0 0 0 0];

internalField   nonuniform List<scalar> 
1568
(
8.33418e-15
2.12315e-14
3.274e-14
3.56511e-14
4.02773e-14
4.58663e-14
4.83616e-14
5.11525e-14
5.40456e-14
5.64603e-14
5.87208e-14
6.10325e-14
6.33289e-14
6.5535e-14
6.77293e-14
6.99804e-14
7.22363e-14
7.45533e-14
7.68892e-14
7.93186e-14
8.17601e-14
8.43015e-14
8.67426e-14
8.86205e-14
9.00019e-14
9.19224e-14
9.49083e-14
9.93068e-14
1.04066e-13
1.08365e-13
1.11249e-13
1.13155e-13
1.14515e-13
1.16465e-13
1.18877e-13
1.21438e-13
1.23776e-13
1.26245e-13
1.28535e-13
1.30829e-13
1.33008e-13
1.35249e-13
1.37361e-13
1.39574e-13
1.41744e-13
1.4401e-13
1.46292e-13
1.48737e-13
1.51307e-13
1.54084e-13
1.57196e-13
1.60962e-13
1.65354e-13
1.6988e-13
1.78162e-13
1.867e-13
1.78518e-14
-2.5357e-15
6.39421e-14
4.47837e-14
2.87472e-14
5.38198e-14
5.23015e-14
5.1633e-14
5.71999e-14
6.01786e-14
6.15366e-14
6.36351e-14
6.60579e-14
6.80184e-14
7.03187e-14
7.26011e-14
7.4701e-14
7.70468e-14
7.93076e-14
8.16632e-14
8.38106e-14
8.63787e-14
8.86163e-14
9.13847e-14
9.36582e-14
9.65797e-14
9.8739e-14
1.0108e-13
1.01848e-13
1.04999e-13
1.07211e-13
1.09998e-13
1.1153e-13
1.14636e-13
1.16599e-13
1.19676e-13
1.21198e-13
1.24089e-13
1.25804e-13
1.28123e-13
1.30156e-13
1.32971e-13
1.34715e-13
1.36941e-13
1.38814e-13
1.41313e-13
1.43434e-13
1.46005e-13
1.48389e-13
1.51745e-13
1.55439e-13
1.58569e-13
1.64026e-13
1.63433e-13
1.78544e-13
1.82459e-13
2.77125e-14
4.48372e-14
1.29969e-14
3.62729e-14
4.46319e-14
5.17232e-14
4.91781e-14
5.39695e-14
5.75365e-14
5.70138e-14
6.13025e-14
6.4834e-14
6.58237e-14
6.79278e-14
7.03476e-14
7.18324e-14
7.40257e-14
7.61369e-14
7.84271e-14
8.0389e-14
8.27158e-14
8.50668e-14
8.79427e-14
9.02132e-14
9.29537e-14
9.47568e-14
9.72961e-14
9.99479e-14
1.03152e-13
1.0523e-13
1.07788e-13
1.10638e-13
1.14778e-13
1.17048e-13
1.19257e-13
1.21037e-13
1.23848e-13
1.25309e-13
1.27618e-13
1.29715e-13
1.31054e-13
1.3183e-13
1.34466e-13
1.3639e-13
1.38832e-13
1.40981e-13
1.43325e-13
1.45844e-13
1.48495e-13
1.51078e-13
1.53531e-13
1.53886e-13
1.66974e-13
1.66306e-13
1.70433e-13
1.76631e-13
3.12048e-14
4.31993e-14
5.28019e-14
4.47081e-14
5.64263e-14
5.91409e-14
5.63673e-14
6.18254e-14
6.70041e-14
6.84021e-14
6.95183e-14
7.11835e-14
7.34825e-14
7.60556e-14
7.74448e-14
7.96805e-14
8.17018e-14
8.33218e-14
8.47627e-14
8.70579e-14
8.87102e-14
9.03677e-14
9.16671e-14
9.34404e-14
9.48402e-14
9.68498e-14
9.8651e-14
1.0096e-13
1.0295e-13
1.05232e-13
1.06819e-13
1.07613e-13
1.08229e-13
1.09494e-13
1.1149e-13
1.13316e-13
1.15165e-13
1.17268e-13
1.18841e-13
1.2107e-13
1.23537e-13
1.26242e-13
1.28067e-13
1.29906e-13
1.31802e-13
1.33872e-13
1.3562e-13
1.38386e-13
1.41232e-13
1.43207e-13
1.48407e-13
1.52409e-13
1.53673e-13
1.53492e-13
1.69787e-13
1.71589e-13
3.62746e-14
3.10397e-14
4.68522e-14
4.81264e-14
5.56704e-14
5.63708e-14
5.83839e-14
6.31481e-14
6.50267e-14
6.69555e-14
6.91874e-14
7.14304e-14
7.33103e-14
7.48592e-14
7.64977e-14
7.84925e-14
8.03046e-14
8.22304e-14
8.41137e-14
8.59369e-14
8.76593e-14
8.94609e-14
9.13304e-14
9.32921e-14
9.50085e-14
9.69638e-14
9.8853e-14
1.00539e-13
1.02289e-13
1.04255e-13
1.06346e-13
1.08409e-13
1.10281e-13
1.12133e-13
1.14304e-13
1.16118e-13
1.1761e-13
1.19434e-13
1.21161e-13
1.22736e-13
1.24248e-13
1.25857e-13
1.27428e-13
1.29262e-13
1.31158e-13
1.33234e-13
1.3554e-13
1.37656e-13
1.39464e-13
1.43582e-13
1.4652e-13
1.43842e-13
1.54894e-13
1.60967e-13
1.59466e-13
1.6519e-13
4.4095e-14
4.9165e-14
5.4131e-14
5.76545e-14
5.76825e-14
5.82253e-14
6.38876e-14
6.7439e-14
6.74323e-14
6.93692e-14
7.20941e-14
7.41339e-14
7.57099e-14
7.756e-14
7.95006e-14
8.09422e-14
8.2315e-14
8.38832e-14
8.5555e-14
8.69737e-14
8.85744e-14
9.03928e-14
9.21282e-14
9.37837e-14
9.54705e-14
9.70455e-14
9.88266e-14
1.00691e-13
1.02471e-13
1.0423e-13
1.05901e-13
1.07653e-13
1.09639e-13
1.11361e-13
1.12793e-13
1.14341e-13
1.15961e-13
1.17598e-13
1.19251e-13
1.20885e-13
1.22421e-13
1.24037e-13
1.25795e-13
1.27384e-13
1.29239e-13
1.31101e-13
1.32669e-13
1.35238e-13
1.3781e-13
1.38144e-13
1.42313e-13
1.47865e-13
1.47749e-13
1.44293e-13
1.58014e-13
1.59625e-13
5.02701e-14
5.55331e-14
5.79967e-14
5.96705e-14
6.26433e-14
6.60678e-14
6.93346e-14
7.09858e-14
7.26656e-14
7.48714e-14
7.68504e-14
7.82468e-14
7.96423e-14
8.1233e-14
8.27306e-14
8.42008e-14
8.56995e-14
8.70732e-14
8.84352e-14
8.99066e-14
9.13498e-14
9.26293e-14
9.39189e-14
9.52843e-14
9.67278e-14
9.81344e-14
9.95805e-14
1.00996e-13
1.02466e-13
1.03895e-13
1.0508e-13
1.06227e-13
1.07564e-13
1.08859e-13
1.10097e-13
1.11459e-13
1.13021e-13
1.14382e-13
1.15732e-13
1.17222e-13
1.18806e-13
1.2035e-13
1.21863e-13
1.23383e-13
1.25063e-13
1.2669e-13
1.28351e-13
1.30469e-13
1.32062e-13
1.34691e-13
1.38403e-13
1.36233e-13
1.43494e-13
1.49855e-13
1.49531e-13
1.52815e-13
5.62477e-14
5.82768e-14
6.1085e-14
6.37537e-14
6.82812e-14
7.06152e-14
7.18151e-14
7.32131e-14
7.55706e-14
7.72222e-14
7.88591e-14
8.03302e-14
8.17996e-14
8.31813e-14
8.44465e-14
8.5772e-14
8.7107e-14
8.83656e-14
8.96156e-14
9.08833e-14
9.20953e-14
9.33465e-14
9.45744e-14
9.5834e-14
9.70773e-14
9.83763e-14
9.96092e-14
1.00863e-13
1.02184e-13
1.03468e-13
1.04875e-13
1.06253e-13
1.07369e-13
1.08579e-13
1.09982e-13
1.11256e-13
1.12412e-13
1.13628e-13
1.14815e-13
1.16047e-13
1.1726e-13
1.18443e-13
1.19682e-13
1.21034e-13
1.22456e-13
1.23887e-13
1.25235e-13
1.27312e-13
1.29345e-13
1.30238e-13
1.33059e-13
1.36285e-13
1.38016e-13
1.35033e-13
1.44765e-13
1.4656e-13
6.29336e-14
6.50241e-14
6.88755e-14
7.08664e-14
7.34838e-14
7.3784e-14
7.57149e-14
7.77785e-14
7.93301e-14
8.08369e-14
8.21986e-14
8.31881e-14
8.45693e-14
8.59112e-14
8.70049e-14
8.80748e-14
8.91203e-14
9.02176e-14
9.13078e-14
9.23027e-14
9.33399e-14
9.45542e-14
9.56169e-14
9.66674e-14
9.77502e-14
9.88288e-14
9.99075e-14
1.01017e-13
1.02116e-13
1.03163e-13
1.0432e-13
1.05468e-13
1.06586e-13
1.07664e-13
1.08749e-13
1.09774e-13
1.10784e-13
1.11827e-13
1.12907e-13
1.13968e-13
1.15025e-13
1.1615e-13
1.17299e-13
1.18403e-13
1.19621e-13
1.20975e-13
1.22331e-13
1.2385e-13
1.24977e-13
1.2681e-13
1.29923e-13
1.28288e-13
1.32971e-13
1.36604e-13
1.37253e-13
1.39635e-13
6.98604e-14
7.22577e-14
7.45357e-14
7.58737e-14
7.81341e-14
7.83939e-14
8.09539e-14
8.27148e-14
8.32805e-14
8.45995e-14
8.59608e-14
8.69154e-14
8.79302e-14
8.89294e-14
8.97769e-14
9.07573e-14
9.16524e-14
9.25e-14
9.33399e-14
9.43357e-14
9.51413e-14
9.5908e-14
9.67722e-14
9.76752e-14
9.84979e-14
9.93597e-14
1.00285e-13
1.01209e-13
1.02064e-13
1.02952e-13
1.03731e-13
1.04527e-13
1.05369e-13
1.0625e-13
1.0707e-13
1.07866e-13
1.08767e-13
1.0968e-13
1.10549e-13
1.11406e-13
1.12309e-13
1.13267e-13
1.14176e-13
1.15147e-13
1.16241e-13
1.17301e-13
1.18223e-13
1.19704e-13
1.21062e-13
1.21728e-13
1.24038e-13
1.25073e-13
1.27982e-13
1.26342e-13
1.31556e-13
1.32982e-13
7.67079e-14
7.85036e-14
7.95363e-14
8.12709e-14
8.34315e-14
8.35263e-14
8.54044e-14
8.66078e-14
8.7253e-14
8.82663e-14
8.91164e-14
9.01107e-14
9.08944e-14
9.15707e-14
9.23155e-14
9.30826e-14
9.38352e-14
9.45172e-14
9.51855e-14
9.5826e-14
9.65587e-14
9.71635e-14
9.78428e-14
9.84393e-14
9.90935e-14
9.97654e-14
1.00555e-13
1.01278e-13
1.02003e-13
1.02692e-13
1.03291e-13
1.03942e-13
1.04617e-13
1.05269e-13
1.05936e-13
1.06605e-13
1.07276e-13
1.07935e-13
1.08601e-13
1.09287e-13
1.09991e-13
1.10687e-13
1.11389e-13
1.12144e-13
1.12989e-13
1.13745e-13
1.14599e-13
1.15866e-13
1.16463e-13
1.17236e-13
1.20162e-13
1.19072e-13
1.20733e-13
1.22959e-13
1.2486e-13
1.25981e-13
8.37485e-14
8.52419e-14
8.57514e-14
8.70119e-14
8.88471e-14
8.85787e-14
8.99199e-14
9.0725e-14
9.11375e-14
9.2004e-14
9.27181e-14
9.3211e-14
9.36732e-14
9.43401e-14
9.50418e-14
9.54219e-14
9.58632e-14
9.63997e-14
9.6972e-14
9.73483e-14
9.78864e-14
9.84125e-14
9.89582e-14
9.94879e-14
1.00121e-13
1.00582e-13
1.0091e-13
1.01153e-13
1.01563e-13
1.02107e-13
1.02733e-13
1.03305e-13
1.03772e-13
1.04226e-13
1.04705e-13
1.05265e-13
1.05721e-13
1.06176e-13
1.06668e-13
1.07163e-13
1.0764e-13
1.08195e-13
1.0873e-13
1.09258e-13
1.09892e-13
1.1043e-13
1.10945e-13
1.11822e-13
1.12588e-13
1.13038e-13
1.14105e-13
1.13838e-13
1.17234e-13
1.16342e-13
1.17429e-13
1.18964e-13
9.07923e-14
9.19012e-14
9.21838e-14
9.29041e-14
9.40811e-14
9.35532e-14
9.46176e-14
9.51939e-14
9.52606e-14
9.57485e-14
9.65709e-14
9.6848e-14
9.68633e-14
9.73445e-14
9.76796e-14
9.79223e-14
9.82305e-14
9.85581e-14
9.88602e-14
9.9148e-14
9.93795e-14
9.96941e-14
9.9879e-14
1.00039e-13
1.00244e-13
1.00604e-13
1.0106e-13
1.01624e-13
1.02023e-13
1.02161e-13
1.02312e-13
1.02562e-13
1.02841e-13
1.03175e-13
1.03458e-13
1.03645e-13
1.03972e-13
1.0429e-13
1.04573e-13
1.04856e-13
1.05146e-13
1.05473e-13
1.0577e-13
1.06063e-13
1.06365e-13
1.0675e-13
1.07112e-13
1.0794e-13
1.07992e-13
1.07639e-13
1.10435e-13
1.09619e-13
1.08785e-13
1.09138e-13
1.1225e-13
1.12024e-13
9.79285e-14
9.85445e-14
9.81873e-14
9.87144e-14
9.94208e-14
9.86085e-14
9.93188e-14
9.96327e-14
9.9525e-14
9.96976e-14
9.99597e-14
9.99878e-14
1.00057e-13
1.00296e-13
1.00242e-13
1.00368e-13
1.00548e-13
1.00598e-13
1.00628e-13
1.0078e-13
1.00891e-13
1.00996e-13
1.01133e-13
1.01387e-13
1.01475e-13
1.01531e-13
1.01425e-13
1.01338e-13
1.0139e-13
1.01588e-13
1.01736e-13
1.01876e-13
1.01927e-13
1.02001e-13
1.02166e-13
1.02196e-13
1.02338e-13
1.02415e-13
1.02477e-13
1.02609e-13
1.0271e-13
1.02776e-13
1.02847e-13
1.02977e-13
1.03095e-13
1.03254e-13
1.03229e-13
1.03428e-13
1.03701e-13
1.04092e-13
1.04062e-13
1.0176e-13
1.06607e-13
1.0548e-13
1.03756e-13
1.04765e-13
1.05016e-13
1.05205e-13
1.04378e-13
1.04453e-13
1.04888e-13
1.03686e-13
1.04038e-13
1.04012e-13
1.03545e-13
1.03561e-13
1.03356e-13
1.03204e-13
1.03207e-13
1.02989e-13
1.02932e-13
1.02859e-13
1.0273e-13
1.02583e-13
1.02522e-13
1.02459e-13
1.02344e-13
1.02195e-13
1.02179e-13
1.02188e-13
1.02105e-13
1.01916e-13
1.01752e-13
1.01462e-13
1.01297e-13
1.01311e-13
1.01289e-13
1.01174e-13
1.01085e-13
1.00925e-13
1.0084e-13
1.0081e-13
1.00675e-13
1.00535e-13
1.00472e-13
1.00349e-13
1.00251e-13
1.00162e-13
1.00141e-13
9.99266e-14
9.98645e-14
9.97115e-14
9.95085e-14
9.97584e-14
9.92234e-14
9.81264e-14
1.00084e-13
9.95007e-14
9.75078e-14
9.46499e-14
9.93347e-14
9.78707e-14
1.12222e-13
1.12523e-13
1.10512e-13
1.10124e-13
1.10388e-13
1.08729e-13
1.08775e-13
1.08413e-13
1.07646e-13
1.07461e-13
1.06881e-13
1.06433e-13
1.06339e-13
1.05935e-13
1.05653e-13
1.05333e-13
1.04998e-13
1.04748e-13
1.04456e-13
1.0409e-13
1.0378e-13
1.03569e-13
1.03135e-13
1.02646e-13
1.0225e-13
1.01995e-13
1.01963e-13
1.01959e-13
1.01736e-13
1.01313e-13
1.00805e-13
1.00465e-13
1.0023e-13
9.99787e-14
9.959e-14
9.93232e-14
9.8968e-14
9.87315e-14
9.84509e-14
9.8112e-14
9.7802e-14
9.75332e-14
9.71412e-14
9.67545e-14
9.66246e-14
9.62986e-14
9.562e-14
9.51917e-14
9.49998e-14
9.50871e-14
9.3719e-14
9.04256e-14
9.59737e-14
9.37359e-14
9.04309e-14
9.05322e-14
1.19227e-13
1.18593e-13
1.16535e-13
1.16003e-13
1.15794e-13
1.13631e-13
1.13446e-13
1.12799e-13
1.11735e-13
1.11225e-13
1.10593e-13
1.09923e-13
1.0939e-13
1.08813e-13
1.08246e-13
1.07696e-13
1.07214e-13
1.06712e-13
1.06206e-13
1.05709e-13
1.05234e-13
1.04763e-13
1.0432e-13
1.03974e-13
1.03566e-13
1.03023e-13
1.02327e-13
1.01614e-13
1.01057e-13
1.00637e-13
1.00233e-13
9.98306e-14
9.93e-14
9.88147e-14
9.83258e-14
9.78756e-14
9.73711e-14
9.68937e-14
9.63644e-14
9.5894e-14
9.53831e-14
9.49097e-14
9.43194e-14
9.37352e-14
9.32113e-14
9.25931e-14
9.17949e-14
9.16921e-14
9.04786e-14
8.84891e-14
9.02621e-14
8.94673e-14
8.50547e-14
8.17592e-14
8.64465e-14
8.37718e-14
1.26375e-13
1.25979e-13
1.22817e-13
1.21621e-13
1.21223e-13
1.18651e-13
1.18125e-13
1.17187e-13
1.15808e-13
1.15e-13
1.14189e-13
1.13282e-13
1.12482e-13
1.11704e-13
1.10966e-13
1.10256e-13
1.0956e-13
1.08811e-13
1.08143e-13
1.07454e-13
1.06809e-13
1.06021e-13
1.05352e-13
1.04572e-13
1.03913e-13
1.03183e-13
1.02646e-13
1.0191e-13
1.01316e-13
1.00521e-13
9.98903e-14
9.90686e-14
9.84425e-14
9.76514e-14
9.70938e-14
9.62967e-14
9.57092e-14
9.4927e-14
9.43383e-14
9.35398e-14
9.28996e-14
9.20856e-14
9.14465e-14
9.05572e-14
8.98604e-14
8.90651e-14
8.81417e-14
8.69619e-14
8.63735e-14
8.59937e-14
8.35777e-14
7.93434e-14
8.52489e-14
8.25093e-14
7.64433e-14
7.64492e-14
1.33285e-13
1.31846e-13
1.28865e-13
1.27045e-13
1.26466e-13
1.23541e-13
1.22651e-13
1.21446e-13
1.1976e-13
1.18755e-13
1.17655e-13
1.1655e-13
1.15447e-13
1.14582e-13
1.13559e-13
1.1275e-13
1.11703e-13
1.10965e-13
1.09925e-13
1.09207e-13
1.08128e-13
1.07455e-13
1.06386e-13
1.05672e-13
1.04559e-13
1.03891e-13
1.02788e-13
1.02156e-13
1.0103e-13
1.00356e-13
9.91681e-14
9.84996e-14
9.74101e-14
9.67639e-14
9.56376e-14
9.49942e-14
9.39122e-14
9.3259e-14
9.21734e-14
9.14833e-14
9.03864e-14
8.9689e-14
8.85641e-14
8.76688e-14
8.65952e-14
8.55692e-14
8.41858e-14
8.38074e-14
8.18793e-14
7.8818e-14
8.08964e-14
7.95584e-14
7.30615e-14
6.87346e-14
7.34283e-14
6.99321e-14
1.40213e-13
1.38748e-13
1.34969e-13
1.3216e-13
1.31408e-13
1.27978e-13
1.26818e-13
1.25353e-13
1.23451e-13
1.22032e-13
1.20797e-13
1.19399e-13
1.18237e-13
1.17022e-13
1.1591e-13
1.14671e-13
1.1367e-13
1.12537e-13
1.11555e-13
1.10403e-13
1.09422e-13
1.08347e-13
1.07295e-13
1.06235e-13
1.05198e-13
1.04146e-13
1.03064e-13
1.0203e-13
1.00903e-13
9.98834e-14
9.87938e-14
9.78559e-14
9.67435e-14
9.57746e-14
9.46233e-14
9.3678e-14
9.24953e-14
9.15802e-14
9.04326e-14
8.94851e-14
8.82772e-14
8.73357e-14
8.60683e-14
8.50289e-14
8.37506e-14
8.27095e-14
8.11632e-14
7.94604e-14
7.7946e-14
7.83739e-14
7.40576e-14
6.74131e-14
7.55989e-14
7.29752e-14
6.31796e-14
6.26772e-14
1.4696e-13
1.44713e-13
1.40801e-13
1.37588e-13
1.37042e-13
1.32953e-13
1.31316e-13
1.29588e-13
1.27508e-13
1.25791e-13
1.24466e-13
1.22659e-13
1.21463e-13
1.19769e-13
1.18939e-13
1.17211e-13
1.16478e-13
1.14534e-13
1.14005e-13
1.12013e-13
1.11605e-13
1.0941e-13
1.09123e-13
1.06869e-13
1.06663e-13
1.04238e-13
1.04129e-13
1.01532e-13
1.01504e-13
9.89279e-14
9.89981e-14
9.63605e-14
9.64719e-14
9.3887e-14
9.408e-14
9.13717e-14
9.14777e-14
8.88781e-14
8.89384e-14
8.63336e-14
8.62883e-14
8.37322e-14
8.34887e-14
8.11433e-14
8.08729e-14
7.83947e-14
7.73044e-14
7.56502e-14
7.47048e-14
6.9137e-14
7.04567e-14
7.20937e-14
6.27555e-14
5.39298e-14
6.17213e-14
5.65598e-14
1.53501e-13
1.50233e-13
1.47039e-13
1.41456e-13
1.41097e-13
1.37561e-13
1.35189e-13
1.33467e-13
1.3105e-13
1.29508e-13
1.27417e-13
1.26092e-13
1.24209e-13
1.23113e-13
1.20965e-13
1.19972e-13
1.17955e-13
1.17272e-13
1.15005e-13
1.14411e-13
1.12046e-13
1.11607e-13
1.0921e-13
1.08713e-13
1.06252e-13
1.05799e-13
1.03297e-13
1.02877e-13
1.00305e-13
9.98746e-14
9.71814e-14
9.66624e-14
9.40037e-14
9.34586e-14
9.0964e-14
9.07233e-14
8.84628e-14
8.79106e-14
8.56798e-14
8.52183e-14
8.31512e-14
8.26145e-14
8.04584e-14
7.94055e-14
7.7098e-14
7.58914e-14
7.40828e-14
7.24765e-14
6.93867e-14
6.94175e-14
6.71768e-14
5.61746e-14
6.45091e-14
6.30325e-14
5.1782e-14
4.95547e-14
1.59818e-13
1.56121e-13
1.5165e-13
1.46753e-13
1.4498e-13
1.40898e-13
1.38542e-13
1.36451e-13
1.33592e-13
1.31874e-13
1.29699e-13
1.28176e-13
1.25707e-13
1.24667e-13
1.22226e-13
1.21583e-13
1.18781e-13
1.18473e-13
1.1551e-13
1.15506e-13
1.12203e-13
1.12543e-13
1.08827e-13
1.09529e-13
1.05575e-13
1.06561e-13
1.02368e-13
1.03593e-13
9.90993e-14
1.00497e-13
9.57924e-14
9.73742e-14
9.26765e-14
9.44212e-14
8.95679e-14
9.13427e-14
8.6327e-14
8.82317e-14
8.36725e-14
8.52795e-14
8.05356e-14
8.20804e-14
7.76188e-14
7.86169e-14
7.46327e-14
7.53297e-14
7.06228e-14
7.05885e-14
6.72363e-14
6.49626e-14
6.02978e-14
6.31172e-14
5.71241e-14
4.5203e-14
4.89521e-14
4.37662e-14
1.66148e-13
1.63573e-13
1.56356e-13
1.53961e-13
1.50717e-13
1.4583e-13
1.442e-13
1.41151e-13
1.38672e-13
1.36121e-13
1.3483e-13
1.31901e-13
1.31039e-13
1.28141e-13
1.27768e-13
1.24462e-13
1.24522e-13
1.20627e-13
1.21221e-13
1.16767e-13
1.17872e-13
1.12894e-13
1.1436e-13
1.08973e-13
1.10705e-13
1.04958e-13
1.06804e-13
1.006e-13
1.02812e-13
9.6379e-14
9.89279e-14
9.26393e-14
9.53496e-14
8.90378e-14
9.17029e-14
8.51075e-14
8.77555e-14
8.1699e-14
8.35252e-14
7.77171e-14
7.96925e-14
7.40123e-14
7.54642e-14
7.04564e-14
7.15982e-14
6.68351e-14
6.68942e-14
6.31882e-14
6.25519e-14
5.81169e-14
5.80514e-14
5.04745e-14
4.73806e-14
5.21929e-14
3.88354e-14
3.70739e-14
1.71986e-13
1.67559e-13
1.57126e-13
1.55916e-13
1.53044e-13
1.48498e-13
1.46349e-13
1.43747e-13
1.41057e-13
1.38771e-13
1.36644e-13
1.34374e-13
1.32594e-13
1.3024e-13
1.28389e-13
1.25996e-13
1.24583e-13
1.21977e-13
1.20741e-13
1.18022e-13
1.16969e-13
1.14141e-13
1.13272e-13
1.10042e-13
1.09466e-13
1.06191e-13
1.05756e-13
1.02002e-13
1.01407e-13
9.72443e-14
9.63275e-14
9.15274e-14
9.06673e-14
8.66405e-14
8.70475e-14
8.3687e-14
8.42072e-14
7.99128e-14
8.10227e-14
7.79388e-14
7.87667e-14
7.49757e-14
7.51255e-14
7.10923e-14
7.09465e-14
6.71057e-14
6.69387e-14
6.31223e-14
6.17438e-14
5.70497e-14
5.7129e-14
5.23568e-14
4.94155e-14
4.37837e-14
3.67536e-14
3.1666e-14
1.77773e-13
1.74821e-13
1.67243e-13
1.61203e-13
1.57715e-13
1.52149e-13
1.48339e-13
1.46156e-13
1.42621e-13
1.40702e-13
1.37549e-13
1.3633e-13
1.32974e-13
1.32552e-13
1.28833e-13
1.29003e-13
1.24672e-13
1.25486e-13
1.20332e-13
1.21837e-13
1.15747e-13
1.17761e-13
1.10961e-13
1.13986e-13
1.0674e-13
1.10176e-13
1.01903e-13
1.05319e-13
9.65004e-14
1.00814e-13
9.26756e-14
9.9163e-14
9.15306e-14
9.6645e-14
8.68482e-14
9.11883e-14
8.16559e-14
8.62452e-14
7.76442e-14
8.00588e-14
7.09289e-14
7.49293e-14
6.74673e-14
7.04996e-14
6.38417e-14
6.59342e-14
5.91582e-14
6.02278e-14
5.50325e-14
5.43012e-14
4.79272e-14
4.37949e-14
4.22599e-14
3.56402e-14
2.89817e-14
2.58313e-14
1.8314e-13
1.76348e-13
1.69558e-13
1.62505e-13
1.59471e-13
1.56176e-13
1.53132e-13
1.49997e-13
1.47362e-13
1.44901e-13
1.42815e-13
1.40349e-13
1.38316e-13
1.3591e-13
1.34087e-13
1.31534e-13
1.29624e-13
1.27022e-13
1.25137e-13
1.22339e-13
1.20526e-13
1.17692e-13
1.15664e-13
1.12293e-13
1.10075e-13
1.06895e-13
1.0509e-13
1.02323e-13
1.01308e-13
9.83366e-14
9.63369e-14
9.23134e-14
8.96954e-14
8.61741e-14
8.45761e-14
8.16634e-14
8.02457e-14
7.73436e-14
7.54656e-14
7.33185e-14
7.21686e-14
6.95578e-14
6.75781e-14
6.51559e-14
6.33026e-14
6.0826e-14
5.86543e-14
5.63829e-14
5.3785e-14
5.05601e-14
4.7763e-14
4.4458e-14
4.07602e-14
3.35131e-14
2.80409e-14
2.06224e-14
1.87364e-13
1.78268e-13
1.70513e-13
1.65373e-13
1.61222e-13
1.57478e-13
1.54254e-13
1.51368e-13
1.48773e-13
1.46301e-13
1.43995e-13
1.41694e-13
1.39526e-13
1.37262e-13
1.35114e-13
1.32802e-13
1.30624e-13
1.28222e-13
1.25979e-13
1.23451e-13
1.2113e-13
1.1848e-13
1.16219e-13
1.14282e-13
1.13058e-13
1.11005e-13
1.08138e-13
1.03598e-13
9.90187e-14
9.46102e-14
9.19582e-14
9.00179e-14
8.8898e-14
8.68462e-14
8.46684e-14
8.19432e-14
7.9737e-14
7.71312e-14
7.49681e-14
7.24945e-14
7.04225e-14
6.80076e-14
6.59864e-14
6.36676e-14
6.16147e-14
5.92533e-14
5.70535e-14
5.45403e-14
5.20093e-14
4.90622e-14
4.59343e-14
4.22403e-14
3.81028e-14
3.29442e-14
2.52868e-14
1.62046e-14
)
;

boundaryField
{
    top
    {
        type            zeroGradient;
    }
    bottom
    {
        type            zeroGradient;
    }
    rotatingWall
    {
        type            zeroGradient;
    }
    wall
    {
        type            zeroGradient;
    }
    frontAndBack
    {
        type            empty;
    }
}


// ************************************************************************* //
