/*--------------------------------*- C++ -*----------------------------------*\
| =========                 |                                                 |
| \\      /  F ield         | OpenFOAM: The Open Source CFD Toolbox           |
|  \\    /   O peration     | Version:  5.0                                   |
|   \\  /    A nd           | Web:      www.OpenFOAM.org                      |
|    \\/     M anipulation  |                                                 |
\*---------------------------------------------------------------------------*/
FoamFile
{
    version     2.0;
    format      ascii;
    class       volVectorField;
    location    "1.7";
    object      U;
}
// * * * * * * * * * * * * * * * * * * * * * * * * * * * * * * * * * * * * * //

dimensions      [0 1 -1 0 0 0 0];

internalField   nonuniform List<vector> 
25
(
(1 2.75217e-10 -9.77639e-30)
(1 -1.20474e-09 -3.2324e-23)
(1 2.1406e-09 -3.2324e-23)
(1 4.48259e-10 -3.23241e-23)
(1 -2.55555e-10 -1.30163e-29)
(0.92 -1.08208e-10 -7.11298e-37)
(0.92 -2.34648e-09 2.79794e-23)
(0.92 4.99561e-09 2.18756e-29)
(0.92 3.662e-09 -2.79795e-23)
(0.92 4.69592e-10 -2.79794e-23)
(0.76 -2.38067e-09 -2.73702e-23)
(0.76 -1.01487e-09 -6.6923e-30)
(0.76 5.92817e-09 2.79794e-23)
(0.76 1.40156e-08 -5.59588e-23)
(0.76 3.9699e-09 -5.59589e-23)
(0.52 -3.93734e-09 5.48443e-23)
(0.52 5.35184e-10 2.79794e-23)
(0.52 6.04081e-09 -5.59588e-23)
(0.52 2.19045e-08 -2.79798e-23)
(0.52 6.19426e-09 5.59589e-23)
(0.2 -1.83935e-09 3.93808e-23)
(0.2 4.76191e-10 1.99394e-23)
(0.2 2.56936e-09 -5.98181e-23)
(0.2 1.02274e-08 -1.99394e-23)
(0.2 2.80581e-09 3.98787e-23)
)
;

boundaryField
{
    top
    {
        type            fixedValue;
        value           uniform (0 0 0);
    }
    bottom
    {
        type            symmetryPlane;
    }
    inlet
    {
        type            pressureInletVelocity;
        value           nonuniform List<vector> 5((1 -0 -0) (0.92 -0 -0) (0.76 -0 -0) (0.52 -0 -0) (0.2 -0 -0));
    }
    outlet
    {
        type            inletOutlet;
        inletValue      nonuniform 0();
        value           nonuniform 0();
    }
    frontAndBack
    {
        type            empty;
    }
    procBoundary0to1
    {
        type            processor;
        value           nonuniform List<vector> 5((1 1.02252e-09 6.46481e-23) (0.92 -4.55166e-11 -2.79795e-23) (0.76 -9.26832e-09 2.79794e-23) (0.52 -1.71621e-08 5.59587e-23) (0.2 -8.3427e-09 3.98788e-23));
    }
}


// ************************************************************************* //
