/*--------------------------------*- C++ -*----------------------------------*\
| =========                 |                                                 |
| \\      /  F ield         | OpenFOAM: The Open Source CFD Toolbox           |
|  \\    /   O peration     | Version:  5.0                                   |
|   \\  /    A nd           | Web:      www.OpenFOAM.org                      |
|    \\/     M anipulation  |                                                 |
\*---------------------------------------------------------------------------*/
FoamFile
{
    version     2.0;
    format      ascii;
    class       volVectorField;
    location    "1.7";
    object      U;
}
// * * * * * * * * * * * * * * * * * * * * * * * * * * * * * * * * * * * * * //

dimensions      [0 1 -1 0 0 0 0];

internalField   nonuniform List<vector> 
25
(
(1.00857 6.00701e-07 1.05571e-27)
(1.00848 -1.4073e-06 -3.25961e-23)
(1.00876 8.69086e-07 -3.26301e-23)
(1.00814 -2.07786e-05 -3.25659e-23)
(1.01019 -6.76217e-05 -4.75424e-25)
(0.927881 2.0206e-06 -7.17374e-37)
(0.927796 -4.58702e-06 2.82246e-23)
(0.928058 4.3032e-06 3.84013e-27)
(0.927462 -5.78652e-05 -2.84377e-23)
(0.928834 -0.000140159 -2.82114e-23)
(0.766511 3.20557e-06 -2.76041e-23)
(0.766439 -7.01705e-06 -7.32517e-26)
(0.766658 9.14704e-06 2.82325e-23)
(0.766138 -6.78085e-05 -5.63684e-23)
(0.766956 -6.59226e-05 -5.63199e-23)
(0.524456 2.93587e-06 5.52956e-23)
(0.524403 -6.2252e-06 2.8142e-23)
(0.524559 9.65208e-06 -5.64634e-23)
(0.524182 -4.6037e-05 -2.79429e-23)
(0.524658 8.17735e-06 5.7258e-23)
(0.201714 1.09441e-06 3.97192e-23)
(0.201692 -2.28933e-06 2.01062e-23)
(0.201758 3.76213e-06 -6.03577e-23)
(0.2016 -1.47085e-05 -2.00909e-23)
(0.20179 1.01557e-05 4.0245e-23)
)
;

boundaryField
{
    top
    {
        type            fixedValue;
        value           uniform (0 0 0);
    }
    bottom
    {
        type            symmetryPlane;
    }
    inlet
    {
        type            pressureInletVelocity;
        value           nonuniform List<vector> 5((1.00856 -0 -0) (0.927873 -0 -0) (0.766503 -0 -0) (0.524448 -0 -0) (0.201709 -0 -0));
    }
    outlet
    {
        type            inletOutlet;
        inletValue      nonuniform 0();
        value           nonuniform 0();
    }
    frontAndBack
    {
        type            empty;
    }
    procBoundary0to1
    {
        type            processor;
        value           nonuniform List<vector> 5((1.00738 -0.000999392 6.64651e-23) (0.926307 -0.00420675 1.64416e-23) (0.764951 -0.00252137 2.65181e-23) (0.523362 -0.00077439 6.58594e-23) (0.201339 -0.000142905 3.81377e-23));
    }
}


// ************************************************************************* //
