/*--------------------------------*- C++ -*----------------------------------*\
| =========                 |                                                 |
| \\      /  F ield         | OpenFOAM: The Open Source CFD Toolbox           |
|  \\    /   O peration     | Version:  5.0                                   |
|   \\  /    A nd           | Web:      www.OpenFOAM.org                      |
|    \\/     M anipulation  |                                                 |
\*---------------------------------------------------------------------------*/
FoamFile
{
    version     2.0;
    format      ascii;
    class       volScalarField;
    location    "2.2";
    object      p;
}
// * * * * * * * * * * * * * * * * * * * * * * * * * * * * * * * * * * * * * //

dimensions      [0 2 -2 0 0 0 0];

internalField   nonuniform List<scalar> 
50
(
18.9731
17.0211
15.0392
13.0623
11.087
9.11591
7.14065
5.07203
3.05383
1.02216
19.0403
17.0231
15.0392
13.0604
11.0526
9.11505
7.10698
5.06816
3.05078
0.983124
19.0915
17.0249
15.0392
13.059
11.0266
9.12077
7.08812
5.06574
3.04797
0.953572
19.0224
17.0231
15.0392
13.0596
11.0613
9.09113
7.09177
5.06649
3.04933
1.01832
18.8041
17.0167
15.0394
13.0627
11.1704
8.99564
7.10245
5.06964
3.0564
1.22956
)
;

boundaryField
{
    top
    {
        type            zeroGradient;
    }
    bottom
    {
        type            symmetryPlane;
    }
    inlet
    {
        type            fixedValue;
        value           uniform 20;
    }
    outlet
    {
        type            fixedValue;
        value           uniform 0;
    }
    frontAndBack
    {
        type            empty;
    }
}


// ************************************************************************* //
