/*--------------------------------*- C++ -*----------------------------------*\
| =========                 |                                                 |
| \\      /  F ield         | OpenFOAM: The Open Source CFD Toolbox           |
|  \\    /   O peration     | Version:  5.0                                   |
|   \\  /    A nd           | Web:      www.OpenFOAM.org                      |
|    \\/     M anipulation  |                                                 |
\*---------------------------------------------------------------------------*/
FoamFile
{
    version     2.0;
    format      ascii;
    class       surfaceScalarField;
    location    "2.2";
    object      phi;
}
// * * * * * * * * * * * * * * * * * * * * * * * * * * * * * * * * * * * * * //

dimensions      [0 3 -1 0 0 0 0];

internalField   nonuniform List<scalar> 
85
(
0.000197156
5.5816e-07
0.000197273
-1.17644e-07
0.000197253
1.99576e-08
0.000196981
2.72204e-07
0.000196911
6.9755e-08
0.000192618
4.29369e-06
0.000188182
4.43543e-06
0.000187504
6.78151e-07
0.000187136
3.67689e-07
3.01073e-07
0.000158027
-1.88103e-07
0.000157892
1.70091e-08
0.00015788
3.2456e-08
0.000157979
1.73215e-07
0.000157631
4.17804e-07
0.000158913
3.01144e-06
0.000159724
3.62389e-06
0.000159763
6.39476e-07
0.00015986
2.7081e-07
9.81404e-07
0.000118735
-1.20853e-06
0.000118488
2.64388e-07
0.000118489
3.17817e-08
0.000118695
-3.32297e-08
0.00011836
7.53069e-07
0.000120695
6.75703e-07
0.00012259
1.72895e-06
0.000122945
2.84498e-07
0.000123315
-9.85599e-08
1.61743e-06
7.91452e-05
-1.28315e-06
7.90479e-05
3.61675e-07
7.90671e-05
1.25518e-08
7.91736e-05
-1.39707e-07
7.92501e-05
6.76503e-07
8.02793e-05
-3.53472e-07
8.14161e-05
5.92123e-07
8.16577e-05
4.28805e-08
8.18962e-05
-3.37034e-07
1.40661e-06
3.9304e-05
3.96656e-05
3.96782e-05
3.95385e-05
4.0215e-05
3.98615e-05
4.04536e-05
4.04965e-05
4.01595e-05
)
;

boundaryField
{
    top
    {
        type            calculated;
        value           uniform 0;
    }
    bottom
    {
        type            symmetryPlane;
        value           uniform 0;
    }
    inlet
    {
        type            calculated;
        value           nonuniform List<scalar> 5(-0.000197714 -0.000157281 -0.000117715 -7.90705e-05 -4.05871e-05);
    }
    outlet
    {
        type            calculated;
        value           nonuniform List<scalar> 5(0.000186835 0.00015918 0.000122679 8.2107e-05 4.15661e-05);
    }
    frontAndBack
    {
        type            empty;
        value           nonuniform 0();
    }
}


// ************************************************************************* //
