/*--------------------------------*- C++ -*----------------------------------*\
| =========                 |                                                 |
| \\      /  F ield         | OpenFOAM: The Open Source CFD Toolbox           |
|  \\    /   O peration     | Version:  5.0                                   |
|   \\  /    A nd           | Web:      www.OpenFOAM.org                      |
|    \\/     M anipulation  |                                                 |
\*---------------------------------------------------------------------------*/
FoamFile
{
    version     2.0;
    format      ascii;
    class       volScalarField;
    location    "2.2";
    object      shearRate;
}
// * * * * * * * * * * * * * * * * * * * * * * * * * * * * * * * * * * * * * //

dimensions      [0 0 -1 0 0 0 0];

internalField   nonuniform List<scalar> 
50
(
5.02032
4.90515
4.91753
4.91855
4.87542
4.90711
3.59404
3.49465
3.44542
3.43936
9.95134
9.83225
9.83877
9.84892
9.77275
9.81766
8.23935
8.10818
8.04425
7.99584
9.79602
9.88335
9.84458
9.87575
9.80207
9.84805
9.80399
9.77009
9.78318
9.65621
9.72917
9.91032
9.84498
9.88899
9.81601
9.86526
10.2632
10.3008
10.3596
10.2236
14.9212
14.8225
14.8406
14.8466
14.8816
14.9291
15.1711
15.2777
15.251
15.4151
)
;

boundaryField
{
    top
    {
        type            zeroGradient;
    }
    bottom
    {
        type            symmetryPlane;
    }
    inlet
    {
        type            zeroGradient;
    }
    outlet
    {
        type            zeroGradient;
    }
    frontAndBack
    {
        type            empty;
    }
}


// ************************************************************************* //
