/*--------------------------------*- C++ -*----------------------------------*\
| =========                 |                                                 |
| \\      /  F ield         | OpenFOAM: The Open Source CFD Toolbox           |
|  \\    /   O peration     | Version:  5.0                                   |
|   \\  /    A nd           | Web:      www.OpenFOAM.org                      |
|    \\/     M anipulation  |                                                 |
\*---------------------------------------------------------------------------*/
FoamFile
{
    version     2.0;
    format      ascii;
    class       volVectorField;
    location    "2.2";
    object      U;
}
// * * * * * * * * * * * * * * * * * * * * * * * * * * * * * * * * * * * * * //

dimensions      [0 1 -1 0 0 0 0];

internalField   nonuniform List<vector> 
50
(
(0.987709 0.00423608 6.16188e-23)
(0.986719 -7.12819e-06 -4.39836e-23)
(0.985372 1.74262e-06 -4.61729e-23)
(0.987223 5.93385e-05 -4.61321e-23)
(0.98254 -0.0020567 3.30491e-23)
(0.986727 0.00241965 9.08003e-23)
(0.940871 0.000872893 1.28653e-23)
(0.938697 0.00017044 -4.54033e-23)
(0.937338 0.00010281 5.21726e-24)
(0.934077 -0.00212973 8.45955e-24)
(0.787158 0.00349375 -8.94903e-37)
(0.790607 -3.17306e-05 4.68227e-23)
(0.788765 3.26519e-05 5.49377e-26)
(0.790574 0.000249945 -3.73528e-23)
(0.787645 -0.00135694 -4.09479e-23)
(0.790876 0.00555318 -3.46362e-23)
(0.79758 0.0040424 -5.95788e-23)
(0.798978 0.000738679 6.57344e-23)
(0.799586 0.000340887 6.55084e-24)
(0.796598 -0.000825442 -1.48729e-22)
(0.58988 -8.24562e-05 -2.58611e-23)
(0.593601 0.000201186 5.82212e-27)
(0.591997 3.35124e-05 2.75391e-23)
(0.593438 3.55083e-05 -5.57505e-23)
(0.59181 0.000274892 -5.46203e-23)
(0.594201 0.00255383 4.81723e-23)
(0.611449 0.00306981 4.06756e-23)
(0.614507 0.000479369 3.03884e-23)
(0.615703 2.77296e-05 -1.23836e-24)
(0.614383 -0.000457308 -5.73081e-23)
(0.395527 -0.00266026 -1.44468e-22)
(0.395422 0.000316956 3.13633e-23)
(0.395133 2.30081e-05 -4.12022e-23)
(0.395694 -9.5493e-05 -1.58835e-23)
(0.395722 0.00144122 -5.22977e-23)
(0.397172 -0.000591369 1.2311e-22)
(0.405601 0.00114193 1.18195e-23)
(0.408324 0.000148717 -2.58557e-24)
(0.408407 -0.000237513 -2.1474e-23)
(0.410512 0.0027882 -1.85785e-22)
(0.201003 -0.011318 3.64447e-23)
(0.197316 4.585e-05 1.57032e-23)
(0.198327 1.6299e-05 -4.94738e-23)
(0.198008 -2.73623e-06 -1.50639e-23)
(0.199335 0.00566331 3.40545e-23)
(0.1998 -0.00517356 7.49098e-25)
(0.201069 0.000634304 1.6504e-23)
(0.202612 0.000112066 1.10407e-24)
(0.201456 -1.56746e-05 0)
(0.205749 0.0115268 0)
)
;

boundaryField
{
    top
    {
        type            fixedValue;
        value           uniform (0 0 0);
    }
    bottom
    {
        type            symmetryPlane;
    }
    inlet
    {
        type            pressureInletVelocity;
        value           nonuniform List<vector> 5((0.988569 0 0) (0.786403 0 0) (0.588574 0 0) (0.395353 0 0) (0.202936 0 0));
    }
    outlet
    {
        type            inletOutlet;
        inletValue      uniform (1 0 0);
        value           nonuniform List<vector> 5((0.934077 -0.00212973 8.45955e-24) (0.796598 -0.000825442 -1.48729e-22) (0.614383 -0.000457308 -5.73081e-23) (0.410512 0.0027882 -1.85785e-22) (0.205749 0.0115268 0));
    }
    frontAndBack
    {
        type            empty;
    }
}


// ************************************************************************* //
