/*--------------------------------*- C++ -*----------------------------------*\
| =========                 |                                                 |
| \\      /  F ield         | OpenFOAM: The Open Source CFD Toolbox           |
|  \\    /   O peration     | Version:  5.0                                   |
|   \\  /    A nd           | Web:      www.OpenFOAM.org                      |
|    \\/     M anipulation  |                                                 |
\*---------------------------------------------------------------------------*/
FoamFile
{
    version     2.0;
    format      ascii;
    class       surfaceScalarField;
    location    "2.5";
    object      phi;
}
// * * * * * * * * * * * * * * * * * * * * * * * * * * * * * * * * * * * * * //

dimensions      [0 3 -1 0 0 0 0];

internalField   nonuniform List<scalar> 
85
(
0.000196879
5.49793e-07
0.000197003
-1.2343e-07
0.000196983
1.94702e-08
0.000196712
2.71336e-07
0.000196642
7.02475e-08
0.000192357
4.2848e-06
0.000187931
4.42607e-06
0.000187254
6.76487e-07
0.000186887
3.66899e-07
3.00873e-07
0.000157826
-1.95943e-07
0.000157693
1.02535e-08
0.00015768
3.18505e-08
0.000157779
1.72603e-07
0.000157432
4.17699e-07
0.000158712
3.00495e-06
0.000159521
3.61611e-06
0.00015956
6.37889e-07
0.000159657
2.70193e-07
9.80133e-07
0.000118599
-1.21247e-06
0.00011835
2.5926e-07
0.000118351
3.14999e-08
0.000118557
-3.3444e-08
0.000118222
7.5226e-07
0.000120553
6.73596e-07
0.000122445
1.72494e-06
0.000122799
2.83711e-07
0.000123167
-9.85041e-08
1.61505e-06
7.90635e-05
-1.28389e-06
7.89635e-05
3.59205e-07
7.89825e-05
1.25625e-08
7.90887e-05
-1.39664e-07
7.91653e-05
6.75654e-07
8.01923e-05
-3.53375e-07
8.13265e-05
5.9067e-07
8.15675e-05
4.2695e-08
8.18056e-05
-3.36543e-07
1.40451e-06
3.92675e-05
3.96267e-05
3.96393e-05
3.94996e-05
4.01753e-05
3.98219e-05
4.04125e-05
4.04552e-05
4.01187e-05
)
;

boundaryField
{
    top
    {
        type            calculated;
        value           uniform 0;
    }
    bottom
    {
        type            symmetryPlane;
        value           uniform 0;
    }
    inlet
    {
        type            calculated;
        value           nonuniform List<scalar> 5(-0.000197429 -0.000157081 -0.000117583 -7.8992e-05 -4.05514e-05);
    }
    outlet
    {
        type            calculated;
        value           nonuniform List<scalar> 5(0.000186587 0.000158978 0.000122533 8.20161e-05 4.15232e-05);
    }
    frontAndBack
    {
        type            empty;
        value           nonuniform 0();
    }
}


// ************************************************************************* //
