/*--------------------------------*- C++ -*----------------------------------*\
| =========                 |                                                 |
| \\      /  F ield         | OpenFOAM: The Open Source CFD Toolbox           |
|  \\    /   O peration     | Version:  5.0                                   |
|   \\  /    A nd           | Web:      www.OpenFOAM.org                      |
|    \\/     M anipulation  |                                                 |
\*---------------------------------------------------------------------------*/
FoamFile
{
    version     2.0;
    format      ascii;
    class       volScalarField;
    location    "2.5";
    object      shearRate;
}
// * * * * * * * * * * * * * * * * * * * * * * * * * * * * * * * * * * * * * //

dimensions      [0 0 -1 0 0 0 0];

internalField   nonuniform List<scalar> 
50
(
5.007
4.89415
4.90626
4.90749
4.86442
4.89591
3.58628
3.4872
3.43812
3.43205
9.92733
9.81168
9.81771
9.8282
9.75212
9.79676
8.22257
8.09179
8.02807
7.97972
9.77676
9.86546
9.82635
9.85769
9.7841
9.82992
9.78611
9.75229
9.76538
9.63865
9.71378
9.89491
9.8293
9.87339
9.80049
9.84963
10.2468
10.2842
10.343
10.2072
14.9031
14.8035
14.821
14.8272
14.862
14.9094
15.1507
15.257
15.2303
15.3942
)
;

boundaryField
{
    top
    {
        type            zeroGradient;
    }
    bottom
    {
        type            symmetryPlane;
    }
    inlet
    {
        type            zeroGradient;
    }
    outlet
    {
        type            zeroGradient;
    }
    frontAndBack
    {
        type            empty;
    }
}


// ************************************************************************* //
