/*--------------------------------*- C++ -*----------------------------------*\
| =========                 |                                                 |
| \\      /  F ield         | OpenFOAM: The Open Source CFD Toolbox           |
|  \\    /   O peration     | Version:  5.0                                   |
|   \\  /    A nd           | Web:      www.OpenFOAM.org                      |
|    \\/     M anipulation  |                                                 |
\*---------------------------------------------------------------------------*/
FoamFile
{
    version     2.0;
    format      ascii;
    class       volVectorField;
    location    "2.5";
    object      U;
}
// * * * * * * * * * * * * * * * * * * * * * * * * * * * * * * * * * * * * * //

dimensions      [0 1 -1 0 0 0 0];

internalField   nonuniform List<vector> 
50
(
(0.98628 0.00422368 6.14978e-23)
(0.985389 -7.58039e-06 -4.39737e-23)
(0.984011 1.7045e-06 -4.61725e-23)
(0.985877 5.91955e-05 -4.61322e-23)
(0.981197 -0.00205176 3.29815e-23)
(0.985371 0.00241456 9.08006e-23)
(0.939614 0.000871303 1.292e-23)
(0.937445 0.000170079 -4.53927e-23)
(0.93609 0.00010258 5.20761e-24)
(0.932834 -0.00212486 8.52199e-24)
(0.786151 0.00347636 -8.95566e-37)
(0.789625 -3.97153e-05 4.68477e-23)
(0.787761 3.18792e-05 5.35583e-26)
(0.789579 0.000249048 -3.73611e-23)
(0.786651 -0.00135349 -4.09475e-23)
(0.789874 0.00554134 -3.46572e-23)
(0.796569 0.00403348 -5.94653e-23)
(0.797962 0.000736765 6.57432e-23)
(0.79857 0.000340125 6.53914e-24)
(0.795586 -0.000823548 -1.48582e-22)
(0.589213 -8.74102e-05 -2.58732e-23)
(0.592923 0.000195244 -2.94414e-26)
(0.591302 3.30866e-05 2.75384e-23)
(0.592749 3.51426e-05 -5.5749e-23)
(0.591121 0.000274307 -5.462e-23)
(0.593508 0.00254878 4.8144e-23)
(0.610725 0.00306308 4.06496e-23)
(0.613775 0.000478134 3.03818e-23)
(0.614968 2.75287e-05 -1.23586e-24)
(0.61365 -0.000456757 -5.72664e-23)
(0.395131 -0.00265942 -1.44186e-22)
(0.395008 0.000313426 3.13506e-23)
(0.394707 2.28976e-05 -4.12013e-23)
(0.395272 -9.55474e-05 -1.58891e-23)
(0.395298 0.00143894 -5.21579e-23)
(0.396746 -0.000590881 1.2299e-22)
(0.405157 0.0011393 1.18356e-23)
(0.407873 0.000148281 -2.58059e-24)
(0.407955 -0.000237199 -2.14727e-23)
(0.410057 0.00278346 -1.85503e-22)
(0.200824 -0.0113056 3.64523e-23)
(0.197127 4.40595e-05 1.57045e-23)
(0.198131 1.62448e-05 -4.94728e-23)
(0.197814 -2.83434e-06 -1.50657e-23)
(0.199139 0.00565555 3.40528e-23)
(0.199603 -0.00516682 7.95183e-25)
(0.200867 0.000632838 1.65037e-23)
(0.202406 0.000111792 1.10193e-24)
(0.201251 -1.56465e-05 0)
(0.205538 0.0115103 0)
)
;

boundaryField
{
    top
    {
        type            fixedValue;
        value           uniform (0 0 0);
    }
    bottom
    {
        type            symmetryPlane;
    }
    inlet
    {
        type            pressureInletVelocity;
        value           nonuniform List<vector> 5((0.987145 0 0) (0.785404 0 0) (0.587914 0 0) (0.39496 0 0) (0.202757 0 0));
    }
    outlet
    {
        type            inletOutlet;
        inletValue      uniform (1 0 0);
        value           nonuniform List<vector> 5((0.932834 -0.00212486 8.52199e-24) (0.795586 -0.000823548 -1.48582e-22) (0.61365 -0.000456757 -5.72664e-23) (0.410057 0.00278346 -1.85503e-22) (0.205538 0.0115103 0));
    }
    frontAndBack
    {
        type            empty;
    }
}


// ************************************************************************* //
