/*--------------------------------*- C++ -*----------------------------------*\
| =========                 |                                                 |
| \\      /  F ield         | OpenFOAM: The Open Source CFD Toolbox           |
|  \\    /   O peration     | Version:  5.0                                   |
|   \\  /    A nd           | Web:      www.OpenFOAM.org                      |
|    \\/     M anipulation  |                                                 |
\*---------------------------------------------------------------------------*/
FoamFile
{
    version     2.0;
    format      ascii;
    class       volScalarField;
    location    "4.6";
    object      shearRate;
}
// * * * * * * * * * * * * * * * * * * * * * * * * * * * * * * * * * * * * * //

dimensions      [0 0 -1 0 0 0 0];

internalField   nonuniform List<scalar> 
50
(
5.00697
4.89412
4.90623
4.90746
4.8644
4.89589
3.58626
3.48718
3.43811
3.43203
9.92727
9.81163
9.81766
9.82815
9.75207
9.79671
8.22253
8.09175
8.02803
7.97968
9.77671
9.86542
9.8263
9.85765
9.78405
9.82987
9.78606
9.75224
9.76533
9.63861
9.71374
9.89487
9.82925
9.87335
9.80045
9.84959
10.2467
10.2842
10.3429
10.2072
14.9031
14.8034
14.8209
14.8271
14.8619
14.9094
15.1506
15.2569
15.2302
15.3941
)
;

boundaryField
{
    top
    {
        type            zeroGradient;
    }
    bottom
    {
        type            symmetryPlane;
    }
    inlet
    {
        type            zeroGradient;
    }
    outlet
    {
        type            zeroGradient;
    }
    frontAndBack
    {
        type            empty;
    }
}


// ************************************************************************* //
