/*--------------------------------*- C++ -*----------------------------------*\
| =========                 |                                                 |
| \\      /  F ield         | OpenFOAM: The Open Source CFD Toolbox           |
|  \\    /   O peration     | Version:  5.0                                   |
|   \\  /    A nd           | Web:      www.OpenFOAM.org                      |
|    \\/     M anipulation  |                                                 |
\*---------------------------------------------------------------------------*/
FoamFile
{
    version     2.0;
    format      ascii;
    class       surfaceScalarField;
    location    "237";
    object      phi;
}
// * * * * * * * * * * * * * * * * * * * * * * * * * * * * * * * * * * * * * //

dimensions      [0 3 -1 0 0 0 0];

internalField   nonuniform List<scalar> 
3052
(
2.62347e-22
-8.72619e-22
1.64901e-21
-1.48937e-21
4.50868e-21
-2.92089e-21
7.56865e-21
-3.14278e-21
1.09516e-20
-3.43427e-21
1.50445e-20
-4.13989e-21
1.94137e-20
-4.40236e-21
2.39839e-20
-4.60302e-21
2.87826e-20
-4.84112e-21
3.37172e-20
-4.97402e-21
3.86992e-20
-5.01821e-21
4.36875e-20
-5.0237e-21
4.86351e-20
-4.98161e-21
5.34844e-20
-4.88136e-21
5.81893e-20
-4.73962e-21
6.27119e-20
-4.55647e-21
6.70084e-20
-4.33049e-21
7.10479e-20
-4.07118e-21
7.47939e-20
-3.77798e-21
7.82218e-20
-3.45717e-21
8.13003e-20
-3.10662e-21
8.40156e-20
-2.73817e-21
8.63403e-20
-2.34535e-21
8.82571e-20
-1.93109e-21
8.97551e-20
-1.51184e-21
9.08471e-20
-1.10177e-21
9.14901e-20
-6.51628e-22
9.16847e-20
-1.96834e-22
9.14162e-20
2.66866e-22
9.07046e-20
7.13572e-22
8.95494e-20
1.16136e-21
8.79933e-20
1.57353e-21
8.60176e-20
2.00038e-21
8.36516e-20
2.3981e-21
8.08993e-20
2.78661e-21
7.7798e-20
3.14019e-21
7.43465e-20
3.48859e-21
7.05949e-20
3.79189e-21
6.65539e-20
4.08097e-21
6.22645e-20
4.32831e-21
5.7754e-20
4.54259e-21
5.3077e-20
4.70841e-21
4.82585e-20
4.84664e-21
4.33559e-20
4.93222e-21
3.84107e-20
4.97476e-21
3.34847e-20
4.9585e-21
2.86252e-20
4.89277e-21
2.3897e-20
4.76176e-21
1.93614e-20
4.57293e-21
1.50899e-20
4.30569e-21
1.11474e-20
3.96128e-21
7.64641e-21
3.53918e-21
4.67723e-21
3.02114e-21
2.2362e-21
2.45393e-21
6.76359e-22
1.5827e-21
6.78138e-22
6.37281e-22
-1.60916e-21
2.14452e-21
-3.07095e-21
3.83595e-21
-4.93901e-21
6.59715e-21
-6.04334e-21
1.01278e-20
-7.11623e-21
1.37963e-20
-7.90561e-21
1.78167e-20
-8.51157e-21
2.21436e-20
-9.03654e-21
2.66126e-20
-9.40797e-21
3.11808e-20
-9.64334e-21
3.58278e-20
-9.76153e-21
4.04869e-20
-9.77056e-21
4.50954e-20
-9.67414e-21
4.9608e-20
-9.48688e-21
5.39914e-20
-9.21099e-21
5.81979e-20
-8.85315e-21
6.22e-20
-8.4167e-21
6.59577e-20
-7.91379e-21
6.94473e-20
-7.34285e-21
7.26335e-20
-6.71737e-21
7.55021e-20
-6.03606e-21
7.80214e-20
-5.31441e-21
8.01853e-20
-4.54814e-21
8.19744e-20
-3.75781e-21
8.33906e-20
-2.95222e-21
8.43992e-20
-2.1333e-21
8.50061e-20
-1.26687e-21
8.5183e-20
-3.82579e-22
8.49389e-20
5.13894e-22
8.42631e-20
1.39976e-21
8.31908e-20
2.26895e-21
8.17274e-20
3.08868e-21
7.99063e-20
3.89765e-21
7.77117e-20
4.67772e-21
7.51649e-20
5.43162e-21
7.22698e-20
6.12947e-21
6.90714e-20
6.79228e-21
6.55735e-20
7.39163e-21
6.1818e-20
7.93817e-21
5.78233e-20
8.41154e-21
5.36293e-20
8.82417e-21
4.92566e-20
9.15416e-21
4.47672e-20
9.41282e-21
4.01939e-20
9.5805e-21
3.55895e-20
9.66169e-21
3.09945e-20
9.63736e-21
2.64677e-20
9.50742e-21
2.20676e-20
9.25909e-21
1.78493e-20
8.88031e-21
1.38633e-20
8.3567e-21
1.02187e-20
7.72866e-21
6.95361e-21
6.89458e-21
4.17544e-21
5.84832e-21
2.10448e-21
4.65266e-21
6.03714e-22
3.09419e-21
1.28244e-21
1.78693e-22
-1.77612e-21
1.55106e-21
-4.6998e-21
3.50195e-21
-6.95791e-21
6.10563e-21
-8.73604e-21
9.09241e-21
-1.01466e-20
1.25224e-20
-1.13778e-20
1.62751e-20
-1.23001e-20
2.02546e-20
-1.30418e-20
2.43932e-20
-1.35824e-20
2.86468e-20
-1.39234e-20
3.29563e-20
-1.40917e-20
3.72638e-20
-1.41037e-20
4.15317e-20
-1.3974e-20
4.57199e-20
-1.37015e-20
4.97802e-20
-1.33008e-20
5.3681e-20
-1.278e-20
5.739e-20
-1.21508e-20
6.08746e-20
-1.14165e-20
6.41062e-20
-1.05937e-20
6.70628e-20
-9.68677e-21
6.97205e-20
-8.70815e-21
7.20616e-20
-7.66122e-21
7.40678e-20
-6.56364e-21
7.57293e-20
-5.42149e-21
7.70257e-20
-4.25366e-21
7.79446e-20
-3.05128e-21
7.84867e-20
-1.81267e-21
7.86495e-20
-5.41578e-22
7.84284e-20
7.35964e-22
7.78322e-20
2.00476e-21
7.68667e-20
3.24493e-21
7.5528e-20
4.44906e-21
7.38295e-20
5.61537e-21
7.17897e-20
6.74189e-21
6.94248e-20
7.81742e-21
6.67475e-20
8.83644e-21
6.37782e-20
9.78633e-21
6.05387e-20
1.06594e-20
5.70544e-20
1.14475e-20
5.33495e-20
1.21435e-20
4.94566e-20
1.27341e-20
4.54122e-20
1.32213e-20
4.12507e-20
1.35948e-20
3.70091e-20
1.38454e-20
3.27349e-20
1.39576e-20
2.84739e-20
1.39269e-20
2.42754e-20
1.37381e-20
2.01872e-20
1.33719e-20
1.62763e-20
1.28333e-20
1.26035e-20
1.21047e-20
9.20766e-21
1.11086e-20
6.22856e-21
9.91674e-21
3.73453e-21
8.47457e-21
1.72153e-21
6.62515e-21
4.46482e-22
4.41132e-21
1.73119e-21
3.1536e-22
-2.1336e-21
1.48159e-21
-5.89865e-21
3.14409e-21
-8.60805e-21
5.43074e-21
-1.10184e-20
8.22801e-21
-1.29403e-20
1.13306e-20
-1.44606e-20
1.4753e-20
-1.57037e-20
1.84044e-20
-1.66722e-20
2.22096e-20
-1.73514e-20
2.61168e-20
-1.77939e-20
3.00803e-20
-1.80293e-20
3.40495e-20
-1.80515e-20
3.79772e-20
-1.78782e-20
4.1828e-20
-1.75297e-20
4.55663e-20
-1.70157e-20
4.91595e-20
-1.63472e-20
5.25741e-20
-1.55369e-20
5.57838e-20
-1.45983e-20
5.87624e-20
-1.35433e-20
6.14863e-20
-1.23834e-20
6.3935e-20
-1.11295e-20
6.609e-20
-9.79536e-21
6.79365e-20
-8.39244e-21
6.94604e-20
-6.93235e-21
7.06467e-20
-5.428e-21
7.14856e-20
-3.88221e-21
7.19803e-20
-2.29823e-21
7.21305e-20
-6.88483e-22
7.19407e-20
9.28812e-22
7.14053e-20
2.53917e-21
7.0525e-20
4.1192e-21
6.92964e-20
5.65671e-21
6.77368e-20
7.14666e-21
6.58554e-20
8.58784e-21
6.36735e-20
9.96568e-21
6.12024e-20
1.12711e-20
5.84654e-20
1.24889e-20
5.54779e-20
1.36121e-20
5.22665e-20
1.46256e-20
4.8856e-20
1.55216e-20
4.52748e-20
1.62912e-20
4.15507e-20
1.69241e-20
3.77194e-20
1.74051e-20
3.38161e-20
1.77262e-20
2.98813e-20
1.78741e-20
2.59554e-20
1.7833e-20
2.20848e-20
1.75866e-20
1.83301e-20
1.71305e-20
1.47409e-20
1.64279e-20
1.13577e-20
1.5449e-20
8.28221e-21
1.42338e-20
5.5445e-21
1.26922e-20
3.23129e-21
1.07079e-20
1.55829e-21
8.39822e-21
4.41166e-22
5.53137e-21
2.17265e-21
4.41656e-22
-2.58992e-21
1.26314e-21
-6.65251e-21
2.86988e-21
-1.01763e-20
4.89775e-21
-1.30071e-20
7.36101e-21
-1.53721e-20
1.01671e-20
-1.72544e-20
1.32653e-20
-1.87782e-20
1.65732e-20
-1.99417e-20
2.00356e-20
-2.07719e-20
2.36013e-20
-2.13246e-20
2.721e-20
-2.16074e-20
3.08229e-20
-2.16349e-20
3.4406e-20
-2.14316e-20
3.79204e-20
-2.10147e-20
4.13324e-20
-2.03956e-20
4.46116e-20
-1.95935e-20
4.77279e-20
-1.86207e-20
5.0656e-20
-1.74956e-20
5.33728e-20
-1.62299e-20
5.58586e-20
-1.484e-20
5.80928e-20
-1.33385e-20
6.00589e-20
-1.17409e-20
6.17411e-20
-1.0058e-20
6.3128e-20
-8.30666e-21
6.42067e-20
-6.49652e-21
6.49732e-20
-4.63944e-21
6.54243e-20
-2.74288e-21
6.55638e-20
-8.22294e-22
6.53908e-20
1.10615e-21
6.49069e-20
3.02154e-21
6.41067e-20
4.90643e-21
6.29915e-20
6.74803e-21
6.15667e-20
8.53698e-21
5.98522e-20
1.02637e-20
5.78602e-20
1.1916e-20
5.56076e-20
1.34811e-20
5.31078e-20
1.49455e-20
5.03826e-20
1.62953e-20
4.74494e-20
1.75196e-20
4.4335e-20
1.86033e-20
4.10666e-20
1.95338e-20
3.7672e-20
2.02962e-20
3.41763e-20
2.08805e-20
3.06153e-20
2.12684e-20
2.70236e-20
2.14452e-20
2.34429e-20
2.1396e-20
1.99188e-20
2.11036e-20
1.64961e-20
2.05357e-20
1.3228e-20
1.96887e-20
1.01777e-20
1.85474e-20
7.37331e-21
1.70095e-20
4.92756e-21
1.50995e-20
2.90914e-21
1.28333e-20
1.29064e-21
9.96578e-21
3.03235e-22
6.54511e-21
2.47787e-21
2.6795e-22
-2.83299e-21
1.16189e-21
-7.48258e-21
2.52813e-21
-1.14846e-20
4.35644e-21
-1.48042e-20
6.53192e-21
-1.75459e-20
9.04167e-21
-1.97588e-20
1.18096e-20
-2.15319e-20
1.47719e-20
-2.28841e-20
1.78803e-20
-2.38625e-20
2.10841e-20
-2.45118e-20
2.43331e-20
-2.48414e-20
2.75913e-20
-2.48788e-20
3.08226e-20
-2.46481e-20
3.39925e-20
-2.41674e-20
3.70717e-20
-2.34563e-20
4.00293e-20
-2.25333e-20
4.28404e-20
-2.14161e-20
4.5481e-20
-2.01217e-20
4.79315e-20
-1.86666e-20
5.01713e-20
-1.70677e-20
5.21851e-20
-1.53412e-20
5.39562e-20
-1.35024e-20
5.54726e-20
-1.15669e-20
5.67213e-20
-9.55007e-21
5.76951e-20
-7.4656e-21
5.83864e-20
-5.32721e-21
5.87957e-20
-3.14809e-21
5.89221e-20
-9.43826e-22
5.87664e-20
1.26574e-21
5.83272e-20
3.46155e-21
5.76042e-20
5.62515e-21
5.65988e-20
7.74118e-21
5.53199e-20
9.79893e-21
5.37771e-20
1.17856e-20
5.19824e-20
1.36874e-20
4.99498e-20
1.54889e-20
4.76957e-20
1.71764e-20
4.52351e-20
1.87333e-20
4.25898e-20
2.01453e-20
3.97811e-20
2.13974e-20
3.68325e-20
2.24733e-20
3.37669e-20
2.33568e-20
3.06136e-20
2.40313e-20
2.74007e-20
2.44787e-20
2.41635e-20
2.46826e-20
2.09388e-20
2.46221e-20
1.77655e-20
2.42742e-20
1.46895e-20
2.36264e-20
1.17618e-20
2.26422e-20
9.02293e-21
2.12677e-20
6.54231e-21
1.9527e-20
4.34965e-21
1.73525e-20
2.5057e-21
1.46009e-20
1.19371e-21
1.13355e-20
3.41314e-22
7.40946e-21
2.81956e-21
2.42603e-22
-3.05768e-21
1.03693e-21
-8.23711e-21
2.22765e-21
-1.26507e-20
3.81117e-21
-1.63844e-20
5.72286e-21
-1.946e-20
7.92914e-21
-2.19672e-20
1.03674e-20
-2.39701e-20
1.29859e-20
-2.55042e-20
1.574e-20
-2.66171e-20
1.85778e-20
-2.73494e-20
2.14605e-20
-2.77247e-20
2.43539e-20
-2.77722e-20
2.72246e-20
-2.75169e-20
3.00431e-20
-2.69818e-20
3.27803e-20
-2.61893e-20
3.54101e-20
-2.51594e-20
3.79094e-20
-2.39127e-20
4.02575e-20
-2.24678e-20
4.24353e-20
-2.08439e-20
4.44268e-20
-1.90581e-20
4.62165e-20
-1.71296e-20
4.77909e-20
-1.50755e-20
4.9138e-20
-1.29135e-20
5.02477e-20
-1.06592e-20
5.11123e-20
-8.33045e-21
5.17274e-20
-5.94193e-21
5.20916e-20
-3.51119e-21
5.22052e-20
-1.05543e-21
5.20671e-20
1.40615e-21
5.16772e-20
3.85399e-21
5.10345e-20
6.26823e-21
5.01423e-20
8.63302e-21
4.9006e-20
1.0933e-20
4.76345e-20
1.31531e-20
4.60385e-20
1.52779e-20
4.42312e-20
1.72916e-20
4.2226e-20
1.91769e-20
4.00379e-20
2.09174e-20
3.76849e-20
2.24959e-20
3.51866e-20
2.3896e-20
3.25637e-20
2.50993e-20
2.98386e-20
2.60876e-20
2.70353e-20
2.68408e-20
2.41807e-20
2.73403e-20
2.13049e-20
2.75651e-20
1.84415e-20
2.74942e-20
1.56284e-20
2.71043e-20
1.29054e-20
2.63623e-20
1.03131e-20
2.52434e-20
7.90174e-21
2.3731e-20
5.70827e-21
2.17373e-20
3.79784e-21
1.92304e-20
2.22869e-21
1.62304e-20
9.84331e-22
1.25517e-20
2.38236e-22
8.16037e-21
3.05826e-21
2.50112e-22
-3.30184e-21
8.78173e-22
-8.86812e-21
1.90512e-21
-1.36791e-20
3.26477e-21
-1.7746e-20
4.92353e-21
-2.11251e-20
6.83688e-21
-2.38879e-20
8.94767e-21
-2.60915e-20
1.12178e-20
-2.77859e-20
1.36107e-20
-2.90179e-20
1.60794e-20
-2.98259e-20
1.85906e-20
-3.02433e-20
2.11119e-20
-3.03e-20
2.36154e-20
-3.00245e-20
2.60735e-20
-2.94428e-20
2.84607e-20
-2.8579e-20
3.0755e-20
-2.74561e-20
3.29363e-20
-2.60963e-20
3.49852e-20
-2.45201e-20
3.68859e-20
-2.27475e-20
3.86236e-20
-2.07986e-20
4.01851e-20
-1.86937e-20
4.15586e-20
-1.64509e-20
4.27335e-20
-1.40897e-20
4.37012e-20
-1.16288e-20
4.44555e-20
-9.08683e-21
4.49928e-20
-6.48133e-21
4.53111e-20
-3.83052e-21
4.54094e-20
-1.1536e-21
4.52882e-20
1.52967e-21
4.49466e-20
4.19878e-21
4.43857e-20
6.83415e-21
4.36073e-20
9.41657e-21
4.26164e-20
1.19289e-20
4.14205e-20
1.43537e-20
4.00292e-20
1.66745e-20
3.84528e-20
1.88728e-20
3.67035e-20
2.09308e-20
3.47947e-20
2.28309e-20
3.27413e-20
2.45544e-20
3.05605e-20
2.60824e-20
2.82711e-20
2.73955e-20
2.58925e-20
2.84729e-20
2.3446e-20
2.92942e-20
2.09554e-20
2.98377e-20
1.84477e-20
3.00809e-20
1.59539e-20
2.99982e-20
1.35071e-20
2.95618e-20
1.11411e-20
2.87477e-20
8.89364e-21
2.75193e-20
6.80734e-21
2.5821e-20
4.92565e-21
2.36421e-20
3.26668e-21
2.09334e-20
1.87424e-21
1.75685e-20
8.77485e-22
1.35533e-20
2.40256e-22
8.79975e-21
3.29843e-21
1.97487e-22
-3.50712e-21
7.29071e-22
-9.40696e-21
1.5948e-21
-1.45494e-20
2.74474e-21
-1.89018e-20
4.14856e-21
-2.25352e-20
5.76055e-21
-2.55098e-20
7.54429e-21
-2.78865e-20
9.46875e-21
-2.97174e-20
1.14951e-20
-3.10506e-20
1.35892e-20
-3.19262e-20
1.57227e-20
-3.23821e-20
1.78675e-20
-3.24481e-20
1.99972e-20
-3.21565e-20
2.2088e-20
-3.15358e-20
2.41196e-20
-3.06122e-20
2.60727e-20
-2.94103e-20
2.7929e-20
-2.79537e-20
2.9673e-20
-2.6265e-20
3.12907e-20
-2.43662e-20
3.27696e-20
-2.22788e-20
3.40984e-20
-2.0023e-20
3.5267e-20
-1.76202e-20
3.62665e-20
-1.50907e-20
3.709e-20
-1.24549e-20
3.77318e-20
-9.73163e-21
3.81891e-20
-6.94093e-21
3.84601e-20
-4.10229e-21
3.85441e-20
-1.23597e-21
3.84401e-20
1.63652e-21
3.81484e-20
4.49454e-21
3.76701e-20
7.31664e-21
3.70074e-20
1.00836e-20
3.6164e-20
1.2776e-20
3.51467e-20
1.53751e-20
3.3963e-20
1.78619e-20
3.26215e-20
2.02178e-20
3.11322e-20
2.24234e-20
2.95072e-20
2.44592e-20
2.77593e-20
2.63056e-20
2.5903e-20
2.79424e-20
2.39534e-20
2.93482e-20
2.1928e-20
3.05016e-20
1.98455e-20
3.13801e-20
1.77267e-20
3.19599e-20
1.55949e-20
3.22162e-20
1.34762e-20
3.21229e-20
1.14006e-20
3.1651e-20
9.3969e-21
3.07646e-20
7.49422e-21
2.94282e-20
5.73305e-21
2.76145e-20
4.14187e-21
2.52576e-20
2.75043e-21
2.22959e-20
1.60542e-21
1.87233e-20
7.16219e-22
1.443e-20
1.72394e-22
9.33195e-21
3.4706e-21
1.4865e-22
-3.65678e-21
5.90467e-22
-9.85561e-21
1.29749e-21
-1.52611e-20
2.23823e-21
-1.98474e-20
3.3803e-21
-2.36842e-20
4.69401e-21
-2.68307e-20
6.15446e-21
-2.93512e-20
7.73068e-21
-3.12971e-20
9.39123e-21
-3.27145e-20
1.11102e-20
-3.36472e-20
1.28617e-20
-3.41342e-20
1.46231e-20
-3.42089e-20
1.63726e-20
-3.39054e-20
1.80913e-20
-3.32536e-20
1.97612e-20
-3.22812e-20
2.13667e-20
-3.10145e-20
2.28928e-20
-2.94783e-20
2.43272e-20
-2.76977e-20
2.56574e-20
-2.5695e-20
2.68735e-20
-2.34933e-20
2.79659e-20
-2.11144e-20
2.89268e-20
-1.85812e-20
2.97482e-20
-1.59135e-20
3.04245e-20
-1.31335e-20
3.09516e-20
-1.02613e-20
3.13273e-20
-7.31839e-21
3.15504e-20
-4.32498e-21
3.16202e-20
-1.30325e-21
3.15352e-20
1.72511e-21
3.12954e-20
4.7378e-21
3.0901e-20
7.71337e-21
3.03547e-20
1.06309e-20
2.96608e-20
1.34705e-20
2.88238e-20
1.62122e-20
2.78497e-20
1.8836e-20
2.67457e-20
2.13214e-20
2.55206e-20
2.36481e-20
2.41839e-20
2.57959e-20
2.27462e-20
2.77435e-20
2.12191e-20
2.94694e-20
1.96157e-20
3.09517e-20
1.79502e-20
3.21673e-20
1.62382e-20
3.30921e-20
1.44972e-20
3.37011e-20
1.27464e-20
3.39686e-20
1.10085e-20
3.38653e-20
9.30764e-21
3.33577e-20
7.66663e-21
3.24155e-20
6.11313e-21
3.10024e-20
4.67386e-21
2.90611e-20
3.38016e-21
2.65548e-20
2.24718e-21
2.34548e-20
1.29361e-21
1.96517e-20
5.90416e-22
1.51034e-20
1.60827e-22
9.76833e-21
3.63149e-21
1.19195e-22
-3.77899e-21
4.60594e-22
-1.01984e-20
1.00572e-21
-1.58088e-20
1.73342e-21
-2.05784e-20
2.61867e-21
-2.45745e-20
3.64246e-21
-2.78583e-20
4.77993e-21
-3.04918e-20
6.00603e-21
-3.25261e-20
7.29899e-21
-3.40092e-20
8.63846e-21
-3.49873e-20
1.0005e-20
-3.54996e-20
1.1379e-20
-3.55816e-20
1.27437e-20
-3.52688e-20
1.4085e-20
-3.45937e-20
1.5389e-20
-3.35834e-20
1.66422e-20
-3.22661e-20
1.78338e-20
-3.06681e-20
1.89532e-20
-2.88155e-20
1.99919e-20
-2.67319e-20
2.09415e-20
-2.44413e-20
2.17945e-20
-2.19666e-20
2.25438e-20
-1.93305e-20
2.31847e-20
-1.65559e-20
2.37128e-20
-1.36641e-20
2.41251e-20
-1.06763e-20
2.44192e-20
-7.61353e-21
2.4594e-20
-4.4981e-21
2.46475e-20
-1.35361e-21
2.45795e-20
1.79611e-21
2.43909e-20
4.92856e-21
2.40821e-20
8.02294e-21
2.36552e-20
1.10582e-20
2.31126e-20
1.40131e-20
2.24582e-20
1.68663e-20
2.16967e-20
1.95966e-20
2.08342e-20
2.2183e-20
1.98772e-20
2.46045e-20
1.8833e-20
2.68396e-20
1.77099e-20
2.88661e-20
1.6517e-20
3.06618e-20
1.52648e-20
3.22037e-20
1.39641e-20
3.34676e-20
1.26274e-20
3.44285e-20
1.12691e-20
3.50599e-20
9.90425e-21
3.53343e-20
8.54938e-21
3.52222e-20
7.22587e-21
3.46905e-20
5.95226e-21
3.37025e-20
4.74314e-21
3.22116e-20
3.62968e-21
3.01903e-20
2.63093e-21
2.7588e-20
1.7444e-21
2.4318e-20
1.01138e-21
2.0361e-20
4.64745e-22
1.56628e-20
1.15391e-22
1.00956e-20
3.74599e-21
8.53975e-23
-3.86317e-21
3.27222e-22
-1.04435e-20
7.17883e-22
-1.61992e-20
1.23829e-21
-2.11006e-20
1.87225e-21
-2.52107e-20
2.60392e-21
-2.85929e-20
3.41534e-21
-3.13066e-20
4.29077e-21
-3.34043e-20
5.21597e-21
-3.49357e-20
6.17441e-21
-3.59456e-20
7.15198e-21
-3.64766e-20
8.13487e-21
-3.65636e-20
9.11233e-21
-3.62453e-20
1.00729e-20
-3.55532e-20
1.10067e-20
-3.45158e-20
1.19039e-20
-3.31621e-20
1.27571e-20
-3.15204e-20
1.35584e-20
-2.9616e-20
1.43021e-20
-2.74745e-20
1.49815e-20
-2.51197e-20
1.55919e-20
-2.25765e-20
1.61282e-20
-1.98675e-20
1.65875e-20
-1.7016e-20
1.6966e-20
-1.40431e-20
1.72619e-20
-1.09713e-20
1.74728e-20
-7.82227e-21
1.75975e-20
-4.62069e-21
1.76349e-20
-1.38997e-21
1.75852e-20
1.84632e-21
1.74481e-20
5.06556e-21
1.72255e-20
8.24597e-21
1.69186e-20
1.13657e-20
1.65292e-20
1.44027e-20
1.60599e-20
1.73354e-20
1.55138e-20
2.01424e-20
1.48954e-20
2.28013e-20
1.42092e-20
2.52908e-20
1.34606e-20
2.75881e-20
1.26556e-20
2.96711e-20
1.18009e-20
3.15166e-20
1.09037e-20
3.31008e-20
9.97197e-21
3.43993e-20
9.01482e-21
3.53863e-20
8.04212e-21
3.60329e-20
7.0659e-21
3.63115e-20
6.09831e-21
3.6195e-20
5.15483e-21
3.56405e-20
4.24527e-21
3.46159e-20
3.38801e-21
3.30881e-20
2.59771e-21
3.09982e-20
1.88116e-21
2.82898e-20
1.26557e-21
2.49506e-20
7.35329e-22
2.08921e-20
3.16993e-22
1.60229e-20
7.52744e-23
1.03425e-20
3.8211e-21
4.98666e-23
-3.91627e-21
1.98426e-22
-1.05893e-20
4.35799e-22
-1.64349e-20
7.50522e-22
-2.14144e-20
1.13271e-21
-2.55934e-20
1.57148e-21
-2.9034e-20
2.05756e-21
-3.17952e-20
2.58273e-21
-3.3931e-20
3.13879e-21
-3.54922e-20
3.71644e-21
-3.65224e-20
4.30155e-21
-3.70606e-20
4.89087e-21
-3.71523e-20
5.47953e-21
-3.6833e-20
6.05753e-21
-3.61297e-20
6.6178e-21
-3.50748e-20
7.15617e-21
-3.36997e-20
7.6679e-21
-3.20318e-20
8.14894e-21
-3.00965e-20
8.59507e-21
-2.79198e-20
9.00275e-21
-2.55268e-20
9.36822e-21
-2.29418e-20
9.69002e-21
-2.01878e-20
9.96539e-21
-1.72884e-20
1.01938e-20
-1.42662e-20
1.03729e-20
-1.11442e-20
1.05007e-20
-7.94529e-21
1.05744e-20
-4.6934e-21
1.05944e-20
-1.41189e-21
1.05615e-20
1.87562e-21
1.04777e-20
5.14682e-21
1.03432e-20
8.37908e-21
1.01581e-20
1.15501e-20
9.92279e-21
1.46373e-20
9.63932e-21
1.76184e-20
9.30999e-21
2.04713e-20
8.93746e-21
2.31737e-20
8.52419e-21
2.57037e-20
8.07349e-21
2.80385e-20
7.589e-21
3.01551e-20
7.07506e-21
3.203e-20
6.53597e-21
3.36394e-20
5.97692e-21
3.49585e-20
5.40178e-21
3.59613e-20
4.81673e-21
3.66183e-20
4.23049e-21
3.68988e-20
3.65277e-21
3.67737e-20
3.08829e-21
3.62117e-20
2.54903e-21
3.51701e-20
2.03746e-21
3.3598e-20
1.56961e-21
3.14672e-20
1.1581e-21
2.87458e-20
7.68777e-22
2.53208e-20
4.40834e-22
2.11668e-20
2.22198e-22
1.62678e-20
6.02572e-23
1.04704e-20
3.8797e-21
1.82584e-23
-3.93179e-21
7.0029e-23
-1.06417e-20
1.55937e-22
-1.65174e-20
2.66808e-22
-2.15211e-20
3.96035e-22
-2.57223e-20
5.42808e-22
-2.91815e-20
7.04184e-22
-3.19579e-20
8.78257e-22
-3.41057e-20
1.06149e-21
-3.56744e-20
1.25185e-21
-3.67114e-20
1.44949e-21
-3.72573e-20
1.65466e-21
-3.73561e-20
1.85145e-21
-3.70283e-20
2.03936e-21
-3.6316e-20
2.22358e-21
-3.52578e-20
2.4017e-21
-3.38769e-20
2.57106e-21
-3.22002e-20
2.73012e-21
-3.02546e-20
2.87725e-21
-2.80664e-20
3.01147e-21
-2.56603e-20
3.13175e-21
-2.30601e-20
3.2378e-21
-2.02904e-20
3.32985e-21
-1.73745e-20
3.40775e-21
-1.43356e-20
3.46886e-21
-1.11971e-20
3.51144e-21
-7.98304e-21
3.53399e-21
-4.71632e-21
3.53736e-21
-1.41963e-21
3.52287e-21
1.88444e-21
3.49224e-21
5.17344e-21
3.4454e-21
8.42372e-21
3.38197e-21
1.16123e-20
3.30195e-21
1.47163e-20
3.20557e-21
1.77137e-20
3.09431e-21
2.05817e-20
2.96837e-21
2.32991e-20
2.82929e-21
2.58421e-20
2.67778e-21
2.81892e-20
2.51531e-21
3.03164e-20
2.3435e-21
3.22009e-20
2.16434e-21
3.3818e-20
1.97988e-21
3.51424e-20
1.79323e-21
3.61474e-20
1.59817e-21
3.68125e-20
1.39455e-21
3.71015e-20
1.20365e-21
3.69682e-20
1.02494e-21
3.63949e-20
8.53651e-22
3.53397e-20
6.94761e-22
3.37734e-20
5.49147e-22
3.16367e-20
4.10927e-22
2.88558e-20
3.01711e-22
2.54343e-20
1.88112e-22
2.12997e-20
5.31345e-23
1.63188e-20
-6.54947e-26
1.05262e-20
3.87935e-21
-1.2984e-23
-3.92146e-21
-5.27223e-23
-1.05945e-20
-1.1936e-22
-1.6442e-20
-2.16423e-22
-2.14201e-20
-3.38428e-22
-2.55977e-20
-4.8334e-22
-2.90364e-20
-6.46192e-22
-3.17955e-20
-8.21038e-22
-3.39302e-20
-1.00415e-21
-3.54898e-20
-1.19491e-21
-3.65191e-20
-1.39361e-21
-3.70569e-20
-1.60016e-21
-3.71479e-20
-1.79859e-21
-3.68279e-20
-1.98853e-21
-3.61245e-20
-2.17532e-21
-3.50694e-20
-2.3563e-21
-3.36945e-20
-2.52892e-21
-3.20261e-20
-2.6918e-21
-3.00909e-20
-2.84322e-21
-2.79137e-20
-2.98248e-21
-2.55198e-20
-3.10742e-21
-2.29333e-20
-3.21705e-21
-2.0178e-20
-3.30917e-21
-1.72764e-20
-3.38484e-21
-1.42535e-20
-3.44337e-21
-1.11324e-20
-3.48691e-21
-7.93707e-21
-3.51475e-21
-4.68916e-21
-3.52701e-21
-1.41126e-21
-3.52106e-21
1.87568e-21
-3.4976e-21
5.14742e-21
-3.45598e-21
8.38119e-21
-3.39785e-21
1.15527e-20
-3.32251e-21
1.46403e-20
-3.23164e-21
1.76216e-20
-3.12474e-21
2.04748e-20
-3.00369e-21
2.31771e-20
-2.86828e-21
2.57065e-20
-2.72051e-21
2.804e-20
-2.56033e-21
3.01557e-20
-2.39023e-21
3.20296e-20
-2.21065e-21
3.3638e-20
-2.02512e-21
3.49557e-20
-1.83573e-21
3.59572e-20
-1.63734e-21
3.66126e-20
-1.42791e-21
3.68917e-20
-1.22657e-21
3.67647e-20
-1.02892e-21
3.62013e-20
-8.33859e-22
3.51597e-20
-6.49612e-22
3.35849e-20
-4.71202e-22
3.14503e-20
-3.00646e-22
2.87342e-20
-1.96683e-22
2.53119e-20
-1.20343e-22
2.11449e-20
-2.02308e-23
1.62571e-20
2.33717e-24
1.04606e-20
3.87965e-21
-4.97143e-23
-3.86674e-21
-1.78414e-22
-1.04557e-20
-3.97859e-22
-1.62143e-20
-6.98209e-22
-2.11105e-20
-1.07365e-21
-2.52181e-20
-1.51159e-21
-2.85967e-20
-1.99972e-21
-3.13063e-20
-2.52675e-21
-3.34016e-20
-3.08389e-21
-3.49307e-20
-3.66184e-21
-3.59384e-20
-4.24767e-21
-3.64684e-20
-4.83872e-21
-3.6554e-20
-5.42923e-21
-3.62349e-20
-6.00882e-21
-3.55423e-20
-6.57122e-21
-3.45047e-20
-7.11202e-21
-3.3151e-20
-7.62702e-21
-3.1509e-20
-8.11103e-21
-2.96043e-20
-8.56073e-21
-2.74624e-20
-8.97152e-21
-2.5107e-20
-9.34127e-21
-2.2562e-20
-9.66583e-21
-1.98501e-20
-9.94422e-21
-1.69955e-20
-1.01732e-20
-1.40213e-20
-1.03529e-20
-1.09511e-20
-1.04815e-20
-7.80693e-21
-1.05597e-20
-4.611e-21
-1.05854e-20
-1.38472e-21
-1.05597e-20
1.84952e-21
-1.04808e-20
5.06888e-21
-1.03513e-20
8.25049e-21
-1.01703e-20
1.13718e-20
-9.94111e-21
1.44101e-20
-9.66267e-21
1.73435e-20
-9.33922e-21
2.01503e-20
-8.97058e-21
2.28083e-20
-8.56198e-21
2.52964e-20
-8.11431e-21
2.75919e-20
-7.63287e-21
2.96727e-20
-7.11978e-21
3.15157e-20
-6.58134e-21
3.30976e-20
-6.02064e-21
3.43936e-20
-5.44384e-21
3.53779e-20
-4.85528e-21
3.60212e-20
-4.26422e-21
3.62968e-20
-3.67551e-21
3.61781e-20
-3.0928e-21
3.56205e-20
-2.52963e-21
3.45895e-20
-1.99149e-21
3.30642e-20
-1.49315e-21
3.09793e-20
-1.05619e-21
2.8253e-20
-6.58638e-22
2.49125e-20
-3.58908e-22
2.08791e-20
-2.08386e-22
1.59985e-20
-6.92229e-23
1.03252e-20
3.81005e-21
-7.46065e-23
-3.79005e-21
-3.02345e-22
-1.02124e-20
-6.74065e-22
-1.58236e-20
-1.18492e-21
-2.05893e-20
-1.81405e-21
-2.45815e-20
-2.54479e-21
-2.78615e-20
-3.35882e-21
-3.04891e-20
-4.23783e-21
-3.25195e-20
-5.16425e-21
-3.39996e-20
-6.12375e-21
-3.49743e-20
-7.10232e-21
-3.54849e-20
-8.08656e-21
-3.55653e-20
-9.06537e-21
-3.52514e-20
-1.00284e-20
-3.4575e-20
-1.09635e-20
-3.35645e-20
-1.18633e-20
-3.22468e-20
-1.27183e-20
-3.06489e-20
-1.35228e-20
-2.87958e-20
-1.42686e-20
-2.67121e-20
-1.49515e-20
-2.44207e-20
-1.5564e-20
-2.19455e-20
-1.61033e-20
-1.93082e-20
-1.65645e-20
-1.65322e-20
-1.69463e-20
-1.36389e-20
-1.72447e-20
-1.0652e-20
-1.74589e-20
-7.5921e-21
-1.75858e-20
-4.48231e-21
-1.76262e-20
-1.3422e-21
-1.75792e-20
1.80487e-21
-1.74473e-20
4.93823e-21
-1.72297e-20
8.03344e-21
-1.69285e-20
1.10703e-20
-1.65441e-20
1.40252e-20
-1.60801e-20
1.68786e-20
-1.5539e-20
1.96079e-20
-1.49259e-20
2.21936e-20
-1.4244e-20
2.46126e-20
-1.3499e-20
2.68449e-20
-1.26964e-20
2.88673e-20
-1.18431e-20
3.06597e-20
-1.09461e-20
3.21971e-20
-1.00137e-20
3.34575e-20
-9.0549e-21
3.44137e-20
-8.07959e-21
3.50412e-20
-7.09826e-21
3.53111e-20
-6.12081e-21
3.51936e-20
-5.15971e-21
3.46578e-20
-4.22562e-21
3.36727e-20
-3.34551e-21
3.21712e-20
-2.52192e-21
3.01353e-20
-1.76788e-21
2.75586e-20
-1.1669e-21
2.42883e-20
-6.85657e-22
2.02923e-20
-2.64235e-22
1.56261e-20
-5.82665e-23
1.00631e-20
3.74881e-21
-1.16303e-22
-3.66589e-21
-4.30763e-22
-9.8704e-21
-9.59973e-22
-1.5278e-20
-1.6758e-21
-1.98559e-20
-2.56081e-21
-2.36853e-20
-3.5867e-21
-2.68294e-20
-4.72741e-21
-2.93436e-20
-5.95718e-21
-3.12844e-20
-7.25319e-21
-3.2698e-20
-8.5941e-21
-3.36275e-20
-9.96143e-21
-3.41114e-20
-1.13363e-20
-3.41846e-20
-1.27031e-20
-3.38791e-20
-1.40461e-20
-3.32268e-20
-1.53514e-20
-3.22535e-20
-1.66059e-20
-3.09863e-20
-1.77991e-20
-2.94498e-20
-1.89206e-20
-2.76693e-20
-1.9961e-20
-2.56665e-20
-2.09123e-20
-2.34655e-20
-2.17664e-20
-2.10865e-20
-2.2519e-20
-1.85536e-20
-2.31627e-20
-1.58861e-20
-2.36951e-20
-1.31074e-20
-2.41101e-20
-1.02363e-20
-2.44076e-20
-7.29541e-21
-2.45828e-20
-4.30359e-21
-2.46389e-20
-1.28435e-21
-2.45722e-20
1.74234e-21
-2.43871e-20
4.75329e-21
-2.40807e-20
7.72927e-21
-2.36594e-20
1.06471e-20
-2.3121e-20
1.34878e-20
-2.24737e-20
1.62288e-20
-2.17168e-20
1.88518e-20
-2.08611e-20
2.13346e-20
-1.99074e-20
2.36583e-20
-1.88682e-20
2.58012e-20
-1.77465e-20
2.7744e-20
-1.65565e-20
2.9464e-20
-1.53033e-20
3.09406e-20
-1.40036e-20
3.215e-20
-1.26644e-20
3.30695e-20
-1.13047e-20
3.36723e-20
-9.93493e-21
3.39338e-20
-8.57196e-21
3.38279e-20
-7.22876e-21
3.33165e-20
-5.93602e-21
3.23596e-20
-4.69966e-21
3.09519e-20
-3.55632e-21
2.90271e-20
-2.54479e-21
2.64772e-20
-1.63294e-21
2.33672e-20
-9.14191e-22
1.9624e-20
-4.7466e-22
1.50481e-20
-1.47497e-22
9.73068e-21
3.60042e-21
-1.41435e-22
-3.51496e-21
-5.62169e-22
-9.42775e-21
-1.24434e-21
-1.45641e-20
-2.17559e-21
-1.89057e-20
-3.32013e-21
-2.253e-20
-4.64118e-21
-2.54999e-20
-6.10897e-21
-2.78711e-20
-7.68905e-21
-2.96993e-20
-9.35368e-21
-3.10295e-20
-1.10733e-20
-3.19014e-20
-1.28277e-20
-3.23536e-20
-1.45889e-20
-3.2418e-20
-1.63411e-20
-3.21255e-20
-1.80588e-20
-3.15034e-20
-1.97317e-20
-3.05786e-20
-2.13355e-20
-2.93757e-20
-2.28658e-20
-2.79191e-20
-2.42979e-20
-2.62303e-20
-2.56328e-20
-2.43321e-20
-2.68461e-20
-2.2245e-20
-2.79435e-20
-1.99911e-20
-2.89014e-20
-1.75898e-20
-2.97298e-20
-1.5062e-20
-3.04058e-20
-1.24271e-20
-3.09424e-20
-9.70519e-21
-3.13169e-20
-6.91543e-21
-3.15464e-20
-4.07836e-21
-3.161e-20
-1.21378e-21
-3.15293e-20
1.65752e-21
-3.12843e-20
4.51496e-21
-3.08981e-20
7.3379e-21
-3.03509e-20
1.01062e-20
-2.96676e-20
1.28e-20
-2.88306e-20
1.53993e-20
-2.78679e-20
1.78846e-20
-2.67646e-20
2.02369e-20
-2.555e-20
2.2438e-20
-2.42125e-20
2.44677e-20
-2.27824e-20
2.63068e-20
-2.1252e-20
2.79349e-20
-1.96538e-20
2.93326e-20
-1.79837e-20
3.04776e-20
-1.62747e-20
3.1349e-20
-1.45282e-20
3.19226e-20
-1.2776e-20
3.21748e-20
-1.10263e-20
3.20732e-20
-9.31459e-21
3.15947e-20
-7.64604e-21
3.07162e-20
-6.07204e-21
2.93657e-20
-4.61078e-21
2.75159e-20
-3.26499e-21
2.52077e-20
-2.16251e-21
2.22508e-20
-1.2691e-21
1.85937e-20
-5.14728e-22
1.43521e-20
-1.21438e-22
9.26939e-21
3.47525e-21
-1.83987e-22
-3.32237e-21
-6.94107e-22
-8.88068e-21
-1.54471e-21
-1.36899e-20
-2.68813e-21
-1.77467e-20
-4.09103e-21
-2.11161e-20
-5.71265e-21
-2.38753e-20
-7.50671e-21
-2.60752e-20
-9.43804e-21
-2.7768e-20
-1.14669e-20
-2.89978e-20
-1.35659e-20
-2.98035e-20
-1.56993e-20
-3.02184e-20
-1.78464e-20
-3.02736e-20
-1.99743e-20
-2.9996e-20
-2.20682e-20
-2.94135e-20
-2.40972e-20
-2.85483e-20
-2.60528e-20
-2.74253e-20
-2.79063e-20
-2.6064e-20
-2.96549e-20
-2.44883e-20
-3.12697e-20
-2.27157e-20
-3.2753e-20
-2.07687e-20
-3.40784e-20
-1.86643e-20
-3.52517e-20
-1.64238e-20
-3.62492e-20
-1.40641e-20
-3.7079e-20
-1.16055e-20
-3.77199e-20
-9.06366e-21
-3.81834e-20
-6.45971e-21
-3.84511e-20
-3.80841e-21
-3.85382e-20
-1.13216e-21
-3.84291e-20
1.55248e-21
-3.81407e-20
4.22281e-21
-3.76596e-20
6.86224e-21
-3.70034e-20
9.44824e-21
-3.61615e-20
1.19647e-20
-3.51533e-20
1.43897e-20
-3.39721e-20
1.67093e-20
-3.26394e-20
1.89032e-20
-3.11531e-20
2.09566e-20
-2.95354e-20
2.28476e-20
-2.77877e-20
2.45631e-20
-2.59349e-20
2.60794e-20
-2.39837e-20
2.73829e-20
-2.19597e-20
2.84506e-20
-1.98747e-20
2.92658e-20
-1.77549e-20
2.98021e-20
-1.56189e-20
3.00388e-20
-1.34941e-20
2.99523e-20
-1.14e-20
2.95164e-20
-9.3789e-21
2.868e-20
-7.45933e-21
2.74485e-20
-5.66236e-21
2.57881e-20
-4.07873e-21
2.3546e-20
-2.65366e-21
2.07916e-20
-1.49092e-21
1.75287e-20
-7.49446e-22
1.34646e-20
-2.27313e-22
8.74393e-21
3.24733e-21
-2.18749e-22
-3.09458e-21
-8.34588e-22
-8.2341e-21
-1.85211e-21
-1.26577e-20
-3.2164e-21
-1.6371e-20
-4.8855e-21
-1.94478e-20
-6.8062e-21
-2.19609e-20
-8.92644e-21
-2.39599e-20
-1.12062e-20
-2.54957e-20
-1.35984e-20
-2.66111e-20
-1.60702e-20
-2.73396e-20
-1.85805e-20
-2.77127e-20
-2.11059e-20
-2.77588e-20
-2.36052e-20
-2.75026e-20
-2.60659e-20
-2.69666e-20
-2.84477e-20
-2.61728e-20
-3.07477e-20
-2.5143e-20
-3.29218e-20
-2.38966e-20
-3.4978e-20
-2.24523e-20
-3.68701e-20
-2.08284e-20
-3.86172e-20
-1.9044e-20
-4.0168e-20
-1.71161e-20
-4.15525e-20
-1.50636e-20
-4.27157e-20
-1.29013e-20
-4.36978e-20
-1.06481e-20
-4.44404e-20
-8.3186e-21
-4.49926e-20
-5.93032e-21
-4.5295e-20
-3.49733e-21
-4.54064e-20
-1.03999e-21
-4.52647e-20
1.42585e-21
-4.49362e-20
3.87821e-21
-4.43571e-20
6.30086e-21
-4.35984e-20
8.67315e-21
-4.25965e-20
1.09805e-20
-4.14264e-20
1.32029e-20
-4.00252e-20
1.53277e-20
-3.84736e-20
1.73362e-20
-3.67134e-20
1.9216e-20
-3.48263e-20
2.09505e-20
-3.27608e-20
2.25211e-20
-3.05975e-20
2.39103e-20
-2.82912e-20
2.51038e-20
-2.59245e-20
2.6084e-20
-2.34616e-20
2.68314e-20
-2.09826e-20
2.73266e-20
-1.84605e-20
2.75485e-20
-1.59702e-20
2.74719e-20
-1.35043e-20
2.70697e-20
-1.11314e-20
2.63339e-20
-8.85026e-21
2.52092e-20
-6.75883e-21
2.36377e-20
-4.83251e-21
2.16839e-20
-3.1961e-21
1.9218e-20
-1.88825e-21
1.60839e-20
-7.86553e-22
1.24573e-20
-1.80085e-22
8.0895e-21
3.06508e-21
-2.46297e-22
-2.83416e-21
-9.86745e-22
-7.48299e-21
-2.17002e-21
-1.14605e-20
-3.76543e-21
-1.47777e-20
-5.70123e-21
-1.75197e-20
-7.92098e-21
-1.97439e-20
-1.03729e-20
-2.15169e-20
-1.29941e-20
-2.28763e-20
-1.57507e-20
-2.38627e-20
-1.85842e-20
-2.45045e-20
-2.14733e-20
-2.48349e-20
-2.43592e-20
-2.487e-20
-2.72363e-20
-2.46406e-20
-3.00433e-20
-2.41568e-20
-3.27886e-20
-2.34508e-20
-3.54045e-20
-2.25249e-20
-3.79162e-20