/*--------------------------------*- C++ -*----------------------------------*\
| =========                 |                                                 |
| \\      /  F ield         | OpenFOAM: The Open Source CFD Toolbox           |
|  \\    /   O peration     | Version:  5.0                                   |
|   \\  /    A nd           | Web:      www.OpenFOAM.org                      |
|    \\/     M anipulation  |                                                 |
\*---------------------------------------------------------------------------*/
FoamFile
{
    version     2.0;
    format      ascii;
    class       volVectorField;
    location    "3.7";
    object      U;
}
// * * * * * * * * * * * * * * * * * * * * * * * * * * * * * * * * * * * * * //

dimensions      [0 1 -1 0 0 0 0];

internalField   nonuniform List<vector> 
25
(
(1 -3.50737e-09 6.46481e-23)
(1 -7.19005e-09 3.23241e-23)
(1 -1.26505e-08 -3.2324e-23)
(1 -2.13164e-08 -6.60824e-29)
(0.999999 -1.03213e-08 3.26279e-23)
(0.92 -1.11654e-08 -2.79794e-23)
(0.92 -2.00862e-08 3.61703e-29)
(0.92 -3.67069e-08 5.59589e-23)
(0.92 -6.15463e-08 -7.90068e-29)
(0.919999 -3.46457e-08 -5.64505e-23)
(0.76 -1.95022e-08 2.79794e-23)
(0.76 -2.91283e-08 2.79793e-23)
(0.76 -5.61776e-08 2.79791e-23)
(0.76 -9.51076e-08 2.77426e-28)
(0.76 -6.10524e-08 -2.82622e-23)
(0.52 -2.21484e-08 5.59587e-23)
(0.52 -2.94773e-08 2.79793e-23)
(0.52 -5.85778e-08 -3.23429e-28)
(0.52 -1.00349e-07 -2.79794e-23)
(0.52 -6.57602e-08 -3.67307e-28)
(0.2 -9.50561e-09 3.98788e-23)
(0.2 -1.21922e-08 1.99394e-23)
(0.2 -2.44437e-08 9.19365e-29)
(0.2 -4.17947e-08 0)
(0.2 -2.74984e-08 0)
)
;

boundaryField
{
    top
    {
        type            fixedValue;
        value           uniform (0 0 0);
    }
    bottom
    {
        type            symmetryPlane;
    }
    inlet
    {
        type            pressureInletVelocity;
        value           nonuniform 0();
    }
    outlet
    {
        type            inletOutlet;
        inletValue      uniform (1 0 0);
        value           nonuniform List<vector> 5((0.999999 -1.03213e-08 3.26279e-23) (0.919999 -3.46457e-08 -5.64505e-23) (0.76 -6.10524e-08 -2.82622e-23) (0.52 -6.57602e-08 -3.67307e-28) (0.2 -2.74984e-08 0));
    }
    frontAndBack
    {
        type            empty;
    }
    procBoundary1to0
    {
        type            processor;
        value           nonuniform List<vector> 5((1 1.943e-09 -7.7561e-30) (0.92 6.47731e-09 -2.79794e-23) (0.76 1.1565e-08 -5.59588e-23) (0.52 1.25634e-08 5.59589e-23) (0.2 5.20807e-09 3.98787e-23));
    }
}


// ************************************************************************* //
