/*--------------------------------*- C++ -*----------------------------------*\
| =========                 |                                                 |
| \\      /  F ield         | OpenFOAM: The Open Source CFD Toolbox           |
|  \\    /   O peration     | Version:  5.0                                   |
|   \\  /    A nd           | Web:      www.OpenFOAM.org                      |
|    \\/     M anipulation  |                                                 |
\*---------------------------------------------------------------------------*/
FoamFile
{
    version     2.0;
    format      ascii;
    class       volVectorField;
    location    "3.7";
    object      U;
}
// * * * * * * * * * * * * * * * * * * * * * * * * * * * * * * * * * * * * * //

dimensions      [0 1 -1 0 0 0 0];

internalField   nonuniform List<vector> 
25
(
(0.985368 0.00241455 9.0801e-23)
(0.939611 0.000871292 1.29205e-23)
(0.937442 0.000170073 -4.53926e-23)
(0.936086 0.000102591 5.20806e-24)
(0.932829 -0.00212485 8.52126e-24)
(0.789872 0.00554134 -3.4658e-23)
(0.796566 0.00403345 -5.94646e-23)
(0.797959 0.000736757 6.57434e-23)
(0.798567 0.000340154 6.53963e-24)
(0.795582 -0.000823527 -1.4858e-22)
(0.593506 0.00254876 4.8144e-23)
(0.610722 0.00306307 4.06497e-23)
(0.613773 0.000478138 3.03821e-23)
(0.614966 2.75342e-05 -1.23585e-24)
(0.613648 -0.000456748 -5.72657e-23)
(0.396745 -0.000590898 1.2299e-22)
(0.405155 0.00113932 1.1836e-23)
(0.407871 0.000148289 -2.58042e-24)
(0.407954 -0.000237217 -2.14725e-23)
(0.410056 0.00278344 -1.85502e-22)
(0.199603 -0.00516681 7.95629e-25)
(0.200866 0.000632843 1.65038e-23)
(0.202405 0.000111795 1.10188e-24)
(0.20125 -1.56548e-05 0)
(0.205537 0.0115103 0)
)
;

boundaryField
{
    top
    {
        type            fixedValue;
        value           uniform (0 0 0);
    }
    bottom
    {
        type            symmetryPlane;
    }
    inlet
    {
        type            pressureInletVelocity;
        value           nonuniform 0();
    }
    outlet
    {
        type            inletOutlet;
        inletValue      uniform (1 0 0);
        value           nonuniform List<vector> 5((0.932829 -0.00212485 8.52126e-24) (0.795582 -0.000823527 -1.4858e-22) (0.613648 -0.000456748 -5.72657e-23) (0.410056 0.00278344 -1.85502e-22) (0.205537 0.0115103 0));
    }
    frontAndBack
    {
        type            empty;
    }
    procBoundary1to0
    {
        type            processor;
        value           nonuniform List<vector> 5((0.981194 -0.00205176 3.29813e-23) (0.786649 -0.00135349 -4.09478e-23) (0.59112 0.000274308 -5.46205e-23) (0.395297 0.00143894 -5.21572e-23) (0.199138 0.00565553 3.4053e-23));
    }
}


// ************************************************************************* //
