/*--------------------------------*- C++ -*----------------------------------*\
| =========                 |                                                 |
| \\      /  F ield         | OpenFOAM: The Open Source CFD Toolbox           |
|  \\    /   O peration     | Version:  5.0                                   |
|   \\  /    A nd           | Web:      www.OpenFOAM.org                      |
|    \\/     M anipulation  |                                                 |
\*---------------------------------------------------------------------------*/
FoamFile
{
    version     2.0;
    format      ascii;
    class       volVectorField;
    location    "130";
    object      U;
}
// * * * * * * * * * * * * * * * * * * * * * * * * * * * * * * * * * * * * * //

dimensions      [0 1 -1 0 0 0 0];

internalField   nonuniform List<vector> 
7000
(
(0.00659591 -0.000664166 -0.0254679)
(0.0196138 -0.00118149 -0.00689964)
(0.0242842 -0.00125254 -0.00212334)
(0.0236645 -0.00101519 -0.000605251)
(0.0222367 -0.000691625 0.000237717)
(0.0209803 -0.000333513 0.000754477)
(0.0192779 9.06468e-05 0.00106085)
(0.0167157 0.000568156 0.0012966)
(0.0132676 0.00093241 0.00153583)
(0.00904227 0.000969589 0.0017453)
(0.00410047 0.000298424 0.00189676)
(-0.000528737 -0.00162987 0.00203027)
(-0.001331 -0.00399453 0.00219066)
(-0.0006852 -0.00439148 0.00189392)
(0.00659434 -0.00144286 -0.0277782)
(0.0204077 -0.00226824 -0.00944029)
(0.0261014 -0.00230389 -0.00421326)
(0.0267891 -0.0021412 -0.00236275)
(0.0267362 -0.00186971 -0.00126967)
(0.026779 -0.00150178 -0.000478882)
(0.0264601 -0.00103407 0.000116835)
(0.0255872 -0.00046624 0.000625073)
(0.0241932 0.000157431 0.00110817)
(0.0221945 0.000721609 0.00155885)
(0.0193805 0.000883936 0.00195698)
(0.0156531 9.00324e-05 0.00228334)
(0.010564 -0.00252976 0.0026554)
(0.00396904 -0.00530458 0.00268315)
(0.00659653 -0.00109091 -0.0276644)
(0.0205 -0.00175243 -0.0093342)
(0.0261497 -0.00201182 -0.00419044)
(0.0267463 -0.00214123 -0.00242659)
(0.0267482 -0.00212748 -0.00142015)
(0.0269268 -0.0019812 -0.000707974)
(0.0267935 -0.00172785 -0.000181226)
(0.0261404 -0.00138938 0.000277647)
(0.0249941 -0.000990803 0.000735673)
(0.0233197 -0.000636057 0.00122071)
(0.0209156 -0.000579969 0.00173887)
(0.0174198 -0.00112469 0.00226127)
(0.0124144 -0.00244024 0.00281504)
(0.00496774 -0.00321285 0.00290121)
(0.00656892 -0.00116144 -0.0276263)
(0.020455 -0.00195021 -0.0092588)
(0.026088 -0.00231504 -0.00410948)
(0.0266961 -0.00248766 -0.00236196)
(0.0267212 -0.00250827 -0.00138149)
(0.0269437 -0.00241435 -0.000723571)
(0.0268368 -0.00223519 -0.000260177)
(0.0261902 -0.00198472 0.000147492)
(0.0250105 -0.00167356 0.000577591)
(0.0232162 -0.00135428 0.00107927)
(0.0205924 -0.00113461 0.00167761)
(0.0168108 -0.00114959 0.00232506)
(0.0115584 -0.00147144 0.00297291)
(0.00417569 -0.00134818 0.00301955)
(0.00654999 -0.00116657 -0.0276124)
(0.020397 -0.00194651 -0.00922707)
(0.0260001 -0.00230384 -0.00407905)
(0.0265999 -0.00247094 -0.00234487)
(0.0266218 -0.00250808 -0.00138471)
(0.0268658 -0.00245246 -0.000763473)
(0.0267795 -0.00232856 -0.000339726)
(0.0261509 -0.00213944 3.29705e-05)
(0.0249735 -0.00188618 0.000447753)
(0.0231256 -0.00159181 0.000970865)
(0.0203544 -0.0013153 0.00163877)
(0.0163342 -0.00114255 0.0023833)
(0.0108621 -0.00107447 0.00308207)
(0.00368567 -0.00056282 0.00308572)
(0.00652168 -0.00111623 -0.0275855)
(0.0203272 -0.00186151 -0.00919114)
(0.0259006 -0.00220988 -0.0040445)
(0.0264984 -0.00237488 -0.00232001)
(0.0265323 -0.00241717 -0.00137225)
(0.0267941 -0.00237751 -0.000768676)
(0.0267384 -0.00227685 -0.000371554)
(0.0261418 -0.00211774 -2.69784e-05)
(0.0249887 -0.00190213 0.000372049)
(0.0231357 -0.00164039 0.000904302)
(0.0203014 -0.00136797 0.00161281)
(0.0161598 -0.00113338 0.0024152)
(0.0105582 -0.000913955 0.00314254)
(0.00344662 -0.000301958 0.00312131)
(0.00649182 -0.00105168 -0.0275642)
(0.0202596 -0.00175778 -0.00916604)
(0.0258158 -0.00208102 -0.00402004)
(0.0264226 -0.00222136 -0.00230149)
(0.0264741 -0.00224715 -0.00136334)
(0.0267488 -0.00220332 -0.000770586)
(0.0267213 -0.00210806 -0.000389432)
(0.0261568 -0.00196514 -6.10787e-05)
(0.0250314 -0.00177825 0.000326966)
(0.0231893 -0.00155473 0.000860774)
(0.0203308 -0.00131616 0.0015908)
(0.0161272 -0.0010894 0.00242717)
(0.010448 -0.000851599 0.00317363)
(0.00334023 -0.00026924 0.00314401)
(0.0064674 -0.000968953 -0.0275566)
(0.0201985 -0.00162352 -0.00915679)
(0.0257459 -0.0019101 -0.00401054)
(0.026365 -0.00201881 -0.00229578)
(0.0264318 -0.00202545 -0.00136275)
(0.0267157 -0.00197564 -0.000776989)
(0.026709 -0.00188394 -0.000406419)
(0.0261709 -0.00175466 -8.59856e-05)
(0.0250708 -0.00159392 0.000298525)
(0.023242 -0.00140949 0.000833658)
(0.020373 -0.00121659 0.0015739)
(0.0161339 -0.00103036 0.00243067)
(0.0104031 -0.000834324 0.00319038)
(0.00328136 -0.000336248 0.00315895)
(0.00644652 -0.00085651 -0.0275609)
(0.0201456 -0.00143678 -0.00916243)
(0.0256913 -0.001678 -0.00401476)
(0.026323 -0.00175559 -0.00230201)
(0.0263999 -0.00174867 -0.00137176)
(0.0266903 -0.00169683 -0.000788193)
(0.0267004 -0.00161152 -0.000423443)
(0.026181 -0.0014987 -0.000108667)
(0.0250981 -0.00136595 0.000274741)
(0.0232802 -0.00122143 0.000813865)
(0.0204051 -0.00107858 0.00156304)
(0.0161393 -0.000948657 0.00243331)
(0.0103663 -0.000828316 0.00320148)
(0.00321495 -0.000462174 0.00316941)
(0.00642631 -0.000716548 -0.0275763)
(0.0201045 -0.00120269 -0.00918177)
(0.0256591 -0.00139017 -0.00403039)
(0.0263057 -0.00143565 -0.00231737)
(0.0263895 -0.00141795 -0.00138754)
(0.0266853 -0.00136865 -0.000804656)
(0.0267071 -0.00129494 -0.000441217)
(0.0262005 -0.00120326 -0.000127867)
(0.0251274 -0.00110275 0.000254788)
(0.0233139 -0.00100218 0.000797074)
(0.0204325 -0.000914881 0.00155573)
(0.0161459 -0.000852051 0.0024373)
(0.0103392 -0.000831539 0.0032135)
(0.00316586 -0.000641999 0.00318225)
(0.00641529 -0.000560872 -0.0276044)
(0.0200847 -0.000940273 -0.00921606)
(0.0256604 -0.00106644 -0.00405736)
(0.0263258 -0.00107682 -0.00234041)
(0.0264156 -0.00104805 -0.0014089)
(0.0267167 -0.00100294 -0.00082403)
(0.0267452 -0.000943939 -0.000457081)
(0.0262467 -0.000877059 -0.00014118)
(0.0251777 -0.000812354 0.000242824)
(0.0233632 -0.000760085 0.000788176)
(0.0204721 -0.00073472 0.00155223)
(0.0161676 -0.000748443 0.00244256)
(0.0103329 -0.000847322 0.00322567)
(0.00314723 -0.000861887 0.00319592)
(0.00641655 -0.000406309 -0.0276418)
(0.0200901 -0.000675587 -0.00926155)
(0.0256997 -0.00073582 -0.0040927)
(0.0263877 -0.000708705 -0.00236768)
(0.026483 -0.000667148 -0.00143069)
(0.0267892 -0.000624747 -0.000840461)
(0.0268242 -0.000580315 -0.000467533)
(0.026329 -0.000539439 -0.000146533)
(0.0252586 -0.000512429 0.000241475)
(0.0234379 -0.000511212 0.000790937)
(0.020535 -0.000551501 0.00155882)
(0.0162142 -0.00064676 0.00245233)
(0.0103554 -0.000872764 0.00323657)
(0.00314358 -0.00109617 0.00320967)
(0.00642077 -0.000265178 -0.0276824)
(0.0201144 -0.000431443 -0.00930874)
(0.0257704 -0.000427106 -0.00412841)
(0.0264839 -0.000362384 -0.00239365)
(0.0265854 -0.000305936 -0.0014483)
(0.0268973 -0.000263797 -0.000850497)
(0.0269387 -0.000232419 -0.000470188)
(0.0264418 -0.000216571 -0.000142569)
(0.0253635 -0.00022681 0.000250334)
(0.0235305 -0.000276401 0.000804225)
(0.0206131 -0.000382076 0.00157457)
(0.016277 -0.000557878 0.00246704)
(0.0104039 -0.000905768 0.00324893)
(0.00316409 -0.00132243 0.00322402)
(0.00643118 -0.000143942 -0.0277249)
(0.0201606 -0.000221831 -0.00935188)
(0.0258723 -0.000160436 -0.00416102)
(0.0266125 -6.19032e-05 -0.00241887)
(0.0267194 9.82331e-06 -0.00146596)
(0.0270363 5.33755e-05 -0.000860411)
(0.0270778 7.385e-05 -0.000471042)
(0.0265728 6.71664e-05 -0.000135012)
(0.0254801 2.26206e-05 0.000264134)
(0.0236283 -7.39969e-05 0.000823403)
(0.0206925 -0.000240379 0.00159541)
(0.0163408 -0.000490532 0.00248369)
(0.010457 -0.000947695 0.00326121)
(0.00319208 -0.00152853 0.00323733)
(0.00645669 -4.61186e-05 -0.0277698)
(0.0202379 -5.30698e-05 -0.00939513)
(0.0260087 5.32333e-05 -0.00419572)
(0.0267745 0.000179547 -0.00244647)
(0.0268849 0.000265848 -0.00148622)
(0.0272037 0.000312043 -0.000873092)
(0.0272365 0.00032444 -0.000472953)
(0.0267163 0.00029871 -0.000126582)
(0.0256023 0.000224259 0.000280871)
(0.0237254 8.62886e-05 0.000846547)
(0.0207678 -0.000133314 0.00161949)
(0.0164014 -0.000447306 0.00250097)
(0.0105119 -0.000996299 0.00327196)
(0.00322787 -0.00170847 0.00324858)
(0.006496 2.73399e-05 -0.0278121)
(0.0203416 7.27889e-05 -0.00943807)
(0.0261737 0.000208518 -0.00422894)
(0.0269676 0.000355563 -0.00246901)
(0.0270811 0.00045396 -0.00150089)
(0.0273992 0.000502489 -0.000880332)
(0.0274173 0.000508727 -0.000468786)
(0.0268754 0.00046755 -0.000110693)
(0.0257331 0.000368263 0.000307537)
(0.0238261 0.000195509 0.000878328)
(0.0208453 -6.74329e-05 0.00164903)
(0.0164671 -0.000431332 0.00251939)
(0.0105786 -0.00104977 0.00328084)
(0.00328415 -0.00185057 0.00325728)
(0.00654078 7.90928e-05 -0.0278484)
(0.0204573 0.000154878 -0.00947658)
(0.0263547 0.000303068 -0.0042587)
(0.027181 0.000459905 -0.00248804)
(0.027298 0.000564045 -0.00151091)
(0.0276136 0.000611829 -0.000882035)
(0.0276127 0.000612433 -0.000457573)
(0.0270443 0.000559129 -8.53524e-05)
(0.0258694 0.000440516 0.000342597)
(0.0239297 0.000241879 0.000916042)
(0.0209267 -5.07896e-05 0.00168106)
(0.0165413 -0.000445933 0.00253661)
(0.0106616 -0.00110336 0.00328649)
(0.00335561 -0.00193636 0.00326285)
(0.00658539 0.00010788 -0.0278875)
(0.020573 0.000190978 -0.00951982)
(0.0265397 0.00033523 -0.00429408)
(0.0274006 0.000489464 -0.00251369)
(0.0275211 0.000590788 -0.00152594)
(0.0278322 0.000632597 -0.000884146)
(0.0278098 0.000626343 -0.000443092)
(0.0272121 0.000563658 -5.73386e-05)
(0.026003 0.000432749 0.000376763)
(0.0240301 0.000219405 0.000950758)
(0.0210073 -8.54396e-05 0.00170828)
(0.016619 -0.000488349 0.00254802)
(0.0107528 -0.00114644 0.00328688)
(0.00342916 -0.00195067 0.00326469)
(0.00662545 0.000109313 -0.0279289)
(0.0206805 0.00017921 -0.00956682)
(0.0267179 0.000304985 -0.00433171)
(0.0276153 0.00044532 -0.00254061)
(0.0277414 0.000535789 -0.00154397)
(0.0280355 0.000568941 -0.000886831)
(0.0279901 0.000554721 -0.000431097)
(0.027363 0.000485712 -3.46171e-05)
(0.0261209 0.000350482 0.000405599)
(0.0241175 0.000136461 0.000979458)
(0.0210775 -0.00016085 0.00172555)
(0.0166904 -0.000546431 0.00255003)
(0.0108396 -0.00116667 0.00328071)
(0.00350502 -0.00188769 0.0032625)
(0.0066613 8.19067e-05 -0.0279703)
(0.0207764 0.000120836 -0.0096153)
(0.0268826 0.000215879 -0.00437008)
(0.0278172 0.000331264 -0.00256866)
(0.0279483 0.000404841 -0.00156586)
(0.0282248 0.000428281 -0.000898125)
(0.0281566 0.000408396 -0.000432127)
(0.0275011 0.000338952 -2.7176e-05)
(0.0262273 0.000209272 0.00041917)
(0.0241972 1.08204e-05 0.000992758)
(0.0211441 -0.000259004 0.00172883)
(0.0167614 -0.0006034 0.00254147)
(0.0109256 -0.00115232 0.00326857)
(0.00358021 -0.00174779 0.00325685)
(0.00669263 2.74339e-05 -0.0280087)
(0.0208578 2.31329e-05 -0.00966346)
(0.0270244 7.87708e-05 -0.00440994)
(0.0279927 0.000159375 -0.00260084)
(0.0281275 0.000211902 -0.00159478)
(0.0283884 0.000226522 -0.00091938)
(0.0282996 0.000205861 -0.000445696)
(0.0276186 0.00014385 -3.62149e-05)
(0.0263171 3.14732e-05 0.000415187)
(0.0242653 -0.000136185 0.000988963)
(0.0212031 -0.000360437 0.00171834)
(0.0168257 -0.000643467 0.00252429)
(0.0110028 -0.00109464 0.00325307)
(0.0036411 -0.00153876 0.0032503)
(0.00672045 -4.6203e-05 -0.0280366)
(0.0209276 -0.000100044 -0.00970308)
(0.0271379 -8.72652e-05 -0.00444778)
(0.0281328 -4.67522e-05 -0.00263481)
(0.0282717 -1.69607e-05 -0.0016265)
(0.0285208 -8.9482e-06 -0.000946935)
(0.0284147 -2.51688e-05 -0.000468499)
(0.0277125 -7.19847e-05 -5.52079e-05)
(0.026389 -0.000156219 0.000400181)
(0.024321 -0.000280569 0.000974585)
(0.0212528 -0.000445886 0.0017006)
(0.0168798 -0.000654258 0.00250447)
(0.0110665 -0.000992012 0.00323841)
(0.00368767 -0.00127676 0.00324473)
(0.00674472 -0.000129057 -0.0280475)
(0.0209852 -0.000236692 -0.00972209)
(0.0272211 -0.00026732 -0.00446929)
(0.0282351 -0.000267055 -0.00265548)
(0.0283806 -0.000259768 -0.00164614)
(0.0286241 -0.000255986 -0.000965628)
(0.0285062 -0.000263074 -0.000485551)
(0.0277886 -0.000287901 -6.96908e-05)
(0.0264496 -0.000335455 0.000387568)
(0.0243704 -0.000407816 0.000961754)
(0.0212982 -0.000506456 0.00168566)
(0.0169268 -0.000634011 0.00248945)
(0.0111191 -0.000852593 0.00322867)
(0.00372284 -0.000979219 0.00324163)
(0.00676462 -0.00021378 -0.028043)
(0.0210254 -0.000377182 -0.00971635)
(0.0272732 -0.000450899 -0.0044667)
(0.0282989 -0.000489383 -0.00265472)
(0.0284531 -0.00050353 -0.00164553)
(0.0286985 -0.000502254 -0.000966265)
(0.0285758 -0.000497006 -0.000487888)
(0.0278499 -0.000495252 -7.26191e-05)
(0.0265022 -0.000500857 0.000383894)
(0.0244162 -0.000516488 0.00095682)
(0.0213399 -0.00054516 0.00167933)
(0.0169653 -0.0005905 0.00248363)
(0.0111576 -0.000689126 0.00322608)
(0.00373865 -0.000665326 0.0032408)
(0.00677988 -0.000294447 -0.0280302)
(0.0210456 -0.000509214 -0.0096976)
(0.0272907 -0.000624312 -0.00445074)
(0.028321 -0.000699887 -0.0026415)
(0.0284863 -0.000734478 -0.0016324)
(0.0287417 -0.000735528 -0.000955048)
(0.0286224 -0.000717519 -0.000480026)
(0.0278966 -0.000688302 -6.67212e-05)
(0.0265475 -0.000651233 0.000388328)
(0.0244586 -0.000610232 0.000960318)
(0.0213776 -0.000570057 0.00168269)
(0.0169947 -0.000535362 0.00248797)
(0.0111812 -0.000515937 0.003231)
(0.00374336 -0.00035468 0.00324294)
(0.00677936 -0.000369677 -0.028003)
(0.0210346 -0.000628613 -0.00966314)
(0.0272643 -0.00078263 -0.00442032)
(0.0282949 -0.000893703 -0.00261442)
(0.0284757 -0.0009486 -0.00160675)
(0.02875 -0.000953441 -0.000932257)
(0.0286437 -0.000924881 -0.000461266)
(0.0279272 -0.000870722 -5.1092e-05)
(0.0265844 -0.000794021 0.00040188)
(0.0244969 -0.000699912 0.000973272)
(0.0214108 -0.000594774 0.00169697)
(0.017016 -0.000483844 0.00250293)
(0.0111887 -0.000349945 0.00324335)
(0.0037423 -6.20654e-05 0.00324775)
(0.00676097 -0.00043729 -0.0279613)
(0.0209925 -0.00073852 -0.00961219)
(0.0271941 -0.000931589 -0.00437641)
(0.0282213 -0.00107712 -0.00257528)
(0.0284221 -0.00115202 -0.00157005)
(0.0287232 -0.00116213 -0.000899631)
(0.0286388 -0.00112598 -0.000433499)
(0.0279404 -0.00105098 -2.79675e-05)
(0.0266112 -0.000939594 0.000421968)
(0.0245293 -0.000797469 0.000992918)
(0.0214384 -0.000632243 0.00171891)
(0.0170296 -0.000449553 0.00252577)
(0.0111807 -0.00020699 0.00326131)
(0.00372623 0.000203666 0.0032575)
(0.00673563 -0.000494539 -0.0279135)
(0.0209295 -0.000839426 -0.00955411)
(0.0270908 -0.00107207 -0.00432738)
(0.0281089 -0.00124982 -0.00253459)
(0.0283299 -0.00134347 -0.00153257)
(0.0286631 -0.00135941 -0.000866259)
(0.028607 -0.00131836 -0.000405758)
(0.0279333 -0.0012273 -5.96954e-06)
(0.026624 -0.00108782 0.000440331)
(0.0245522 -0.000904804 0.00101143)
(0.0214573 -0.000686797 0.00174187)
(0.0170325 -0.00043969 0.0025517)
(0.0111563 -9.95263e-05 0.0032823)
(0.00369514 0.000436679 0.00327158)
(0.00670583 -0.000538498 -0.0278628)
(0.0208494 -0.000922528 -0.00949205)
(0.0269605 -0.00119018 -0.00427508)
(0.0279649 -0.00139501 -0.00249354)
(0.0282033 -0.0015052 -0.00149767)
(0.0285711 -0.00152745 -0.000838435)
(0.0285476 -0.00148464 -0.000384659)
(0.0279039 -0.0013832 9.15406e-06)
(0.0266198 -0.00122404 0.000451036)
(0.0245623 -0.00101051 0.00102254)
(0.021465 -0.000751426 0.00175986)
(0.0170222 -0.000452496 0.002576)
(0.0111151 -3.31735e-05 0.00330376)
(0.003653 0.000622736 0.00328641)
(0.00667259 -0.000565204 -0.0278102)
(0.0207565 -0.000978156 -0.00942884)
(0.0268102 -0.00127042 -0.00421998)
(0.0277983 -0.00149303 -0.00244873)
(0.0280527 -0.00161503 -0.00146237)
(0.0284555 -0.00164339 -0.000814558)
(0.028467 -0.00160202 -0.000371932)
(0.0278565 -0.00149586 1.43475e-05)
(0.0266014 -0.00132635 0.000450493)
(0.0245619 -0.00109531 0.00102221)
(0.0214645 -0.000810727 0.00176843)
(0.0170026 -0.000477924 0.00259436)
(0.0110613 -5.6088e-06 0.0033231)
(0.00359724 0.000744155 0.0032994)
(0.00663783 -0.000573453 -0.0277602)
(0.0206565 -0.00100264 -0.00937079)
(0.0266524 -0.00130622 -0.00416938)
(0.0276239 -0.00153265 -0.0024073)
(0.0278955 -0.00165665 -0.00143095)
(0.0283209 -0.00168886 -0.000796498)
(0.0283676 -0.00164933 -0.000368661)
(0.0277932 -0.00154334 8.02338e-06)
(0.0265705 -0.00137301 0.000437223)
(0.0245534 -0.00113915 0.00100889)
(0.0214596 -0.000847121 0.00176526)
(0.0169799 -0.000501812 0.00260395)
(0.0110032 -8.71343e-06 0.00333796)
(0.00353501 0.000789329 0.00330918)
(0.00660158 -0.000562005 -0.0277178)
(0.0205545 -0.000991562 -0.00932392)
(0.026495 -0.00129055 -0.00413046)
(0.0274535 -0.00150557 -0.0023788)
(0.0277416 -0.00162076 -0.00141309)
(0.0281869 -0.00165093 -0.000789604)
(0.0282675 -0.00161263 -0.000373614)
(0.0277291 -0.00151179 -7.49934e-06)
(0.0265403 -0.00135025 0.000415019)
(0.0245489 -0.00112797 0.000986493)
(0.0214626 -0.00084711 0.00175121)
(0.016969 -0.000511562 0.0026039)
(0.0109595 -3.13658e-05 0.00334699)
(0.00348387 0.000760586 0.00331614)
(0.00656665 -0.000527379 -0.0276884)
(0.0204581 -0.000937275 -0.00929466)
(0.0263513 -0.00121412 -0.0041092)
(0.0272998 -0.00140485 -0.00236742)
(0.0276018 -0.00150384 -0.00140837)
(0.028064 -0.00152839 -0.000789167)
(0.0281754 -0.00149171 -0.000383437)
(0.0276699 -0.0014 -2.85687e-05)
(0.0265131 -0.00125529 0.000387014)
(0.0245479 -0.00105631 0.000957563)
(0.0214724 -0.000803478 0.001729)
(0.0169699 -0.000498829 0.00259585)
(0.0109335 -6.18094e-05 0.0033505)
(0.00344769 0.000674424 0.00332022)
(0.00653754 -0.000465009 -0.0276761)
(0.0203751 -0.000831177 -0.00928573)
(0.0262309 -0.00107031 -0.00410495)
(0.0271716 -0.00122581 -0.00236923)
(0.0274826 -0.00130241 -0.00141418)
(0.0279553 -0.001319 -0.000800196)
(0.0280914 -0.00128483 -0.000403177)
(0.0276126 -0.00120587 -5.73549e-05)
(0.0264823 -0.00108486 0.000352818)
(0.0245402 -0.000919877 0.0009231)
(0.0214754 -0.00071053 0.00170149)
(0.016967 -0.000456883 0.0025827)
(0.0109092 -9.07797e-05 0.00335014)
(0.00342141 0.00054652 0.00332071)
(0.00651746 -0.000373242 -0.0276803)
(0.0203095 -0.000667829 -0.00929313)
(0.0261397 -0.000853385 -0.00411303)
(0.0270757 -0.00096391 -0.0023799)
(0.0273892 -0.00101341 -0.00142915)
(0.0278677 -0.00102066 -0.000819393)
(0.0280129 -0.000991727 -0.00042656)
(0.0275536 -0.000930243 -8.66477e-05)
(0.0264431 -0.000839558 0.00031996)
(0.0245182 -0.000718457 0.000890775)
(0.0214609 -0.000566399 0.00167574)
(0.0169462 -0.000381974 0.0025698)
(0.0108699 -0.000113773 0.00334879)
(0.0033893 0.000379458 0.0033189)
(0.00650003 -0.000253251 -0.0276936)
(0.0202598 -0.000450957 -0.00930767)
(0.0260828 -0.000569434 -0.00412358)
(0.0270207 -0.000629277 -0.00239158)
(0.0273345 -0.000651014 -0.00144319)
(0.0278155 -0.000649849 -0.000834879)
(0.0279646 -0.000628589 -0.000443817)
(0.0275157 -0.00058893 -0.000107391)
(0.0264153 -0.000533769 0.00029735)
(0.0244984 -0.000463576 0.000868947)
(0.0214421 -0.00037857 0.00165867)
(0.0169177 -0.000276846 0.00256167)
(0.0108254 -0.000128634 0.00334865)
(0.00335286 0.000168387 0.00331566)
(0.00648715 -0.000118386 -0.0277083)
(0.0202309 -0.00020573 -0.00932061)
(0.0260646 -0.000247865 -0.00412871)
(0.0270116 -0.000256735 -0.00239482)
(0.0273259 -0.000252746 -0.00144667)
(0.0278072 -0.00024447 -0.0008375)
(0.0279571 -0.000231973 -0.000446502)
(0.0275094 -0.000215722 -0.000111903)
(0.0264097 -0.000197822 0.000291999)
(0.0244912 -0.000180806 0.000863854)
(0.021429 -0.00016638 0.00165514)
(0.0168935 -0.000153735 0.00256118)
(0.0107902 -0.000138949 0.00335041)
(0.00332446 -7.89375e-05 0.00331508)
(0.00648373 7.19776e-06 -0.0277063)
(0.0202302 2.91345e-05 -0.00930946)
(0.026082 6.88681e-05 -0.00411306)
(0.0270351 0.000109753 -0.00237875)
(0.0273478 0.00013779 -0.00143087)
(0.0278262 0.000153379 -0.000821554)
(0.0279725 0.000158431 -0.000431449)
(0.027519 0.000152732 -9.76611e-05)
(0.0264127 0.00013458 0.000306269)
(0.024486 9.98834e-05 0.00087756)
(0.0214155 4.48558e-05 0.00166694)
(0.016874 -3.22515e-05 0.00256956)
(0.0107719 -0.00015657 0.00335432)
(0.00331254 -0.000338513 0.00331819)
(0.00648487 0.000109839 -0.0276831)
(0.0202527 0.000228621 -0.00927921)
(0.0261145 0.000347886 -0.00408879)
(0.0270641 0.000438297 -0.0023578)
(0.0273725 0.000490828 -0.00141076)
(0.0278466 0.000514875 -0.000803942)
(0.0279887 0.000514295 -0.000413989)
(0.0275277 0.000488657 -7.61737e-05)
(0.0264126 0.000436089 0.000329602)
(0.0244765 0.000351751 0.000900805)
(0.0214011 0.000229697 0.00168713)
(0.0168636 6.63711e-05 0.00258244)
(0.0107786 -0.000191038 0.00335846)
(0.00331634 -0.000586127 0.00332246)
(0.00649488 0.00019306 -0.0276756)
(0.0203003 0.00039342 -0.00927839)
(0.0261682 0.000581598 -0.00409611)
(0.0271132 0.000719702 -0.00236479)
(0.0274193 0.00079752 -0.00141417)
(0.0278914 0.000830598 -0.000804093)
(0.028033 0.000824391 -0.000408423)
(0.0275634 0.000779418 -6.21513e-05)
(0.0264358 0.000693475 0.0003491)
(0.0244875 0.00056107 0.000923094)
(0.021407 0.000375127 0.00170749)
(0.0168769 0.000133071 0.00259389)
(0.0108099 -0.000239441 0.00336024)
(0.00333504 -0.000805552 0.00332523)
(0.00652086 0.000268654 -0.0277097)
(0.0203772 0.000533775 -0.00932692)
(0.026267 0.00077211 -0.00414094)
(0.0272186 0.000950884 -0.00240024)
(0.0275256 0.00105203 -0.0014425)
(0.0279994 0.00109182 -0.000823149)
(0.0281353 0.00107877 -0.000415527)
(0.0276481 0.0010153 -5.68509e-05)
(0.0264984 0.000898537 0.000363867)
(0.0245289 0.000722152 0.000943381)
(0.0214364 0.000479571 0.00172665)
(0.0169071 0.000171148 0.00260269)
(0.0108485 -0.000293856 0.00335963)
(0.0033646 -0.000988166 0.00332556)
(0.00656428 0.000338747 -0.0277657)
(0.0204845 0.000644277 -0.00939138)
(0.0264226 0.000906709 -0.00419132)
(0.0273967 0.00111365 -0.00243388)
(0.0277034 0.00123433 -0.0014632)
(0.0281729 0.00127919 -0.000833773)
(0.0282853 0.00126077 -0.000415266)
(0.027768 0.0011819 -4.48144e-05)
(0.0265853 0.00104007 0.000385625)
(0.0245844 0.00082794 0.000969671)
(0.021472 0.00054231 0.00174942)
(0.0169377 0.00018528 0.00261211)
(0.0108839 -0.000347726 0.00335856)
(0.00339828 -0.0011295 0.00332342)
(0.00661548 0.000388255 -0.0278119)
(0.0206073 0.000703737 -0.00943521)
(0.0266146 0.000966294 -0.00422267)
(0.0276158 0.00118528 -0.00245258)
(0.0279139 0.0013186 -0.00146835)
(0.0283664 0.00136766 -0.000826777)
(0.0284426 0.00134706 -0.000395982)
(0.0278858 0.00125874 -1.51085e-05)
(0.0266631 0.00110057 0.000423323)
(0.0246255 0.000866298 0.0010082)
(0.021491 0.000556289 0.00177758)
(0.0169544 0.000172919 0.0026233)
(0.0109173 -0.000398355 0.00335726)
(0.00344121 -0.00122269 0.00331931)
(0.00666096 0.000401944 -0.0278413)
(0.0207244 0.000702396 -0.00946037)
(0.0268044 0.000951494 -0.00424019)
(0.0278277 0.00116756 -0.00246379)
(0.0281088 0.00130231 -0.00147485)
(0.0285352 0.00135073 -0.00082431)
(0.0285708 0.00132848 -0.000377797)
(0.0279722 0.00123643 1.40559e-05)
(0.0267092 0.00107193 0.000459287)
(0.0246383 0.000831304 0.00104358)
(0.0214881 0.000516877 0.00180103)
(0.0169596 0.000131215 0.00262965)
(0.0109559 -0.000442333 0.00335182)
(0.00349548 -0.00125425 0.0033131)
(0.00669515 0.000380473 -0.0278717)
(0.0208263 0.000651316 -0.00949445)
(0.0269714 0.000880452 -0.00426974)
(0.0280123 0.00108313 -0.00248824)
(0.0282762 0.0012077 -0.00149469)
(0.0286711 0.00124864 -0.000837241)
(0.0286694 0.00122215 -0.0003784)
(0.028032 0.00112945 2.47396e-05)
(0.0267325 0.000967317 0.00047698)
(0.0246348 0.000733701 0.00106141)
(0.0214775 0.000433108 0.00180872)
(0.0169658 6.83971e-05 0.00262366)
(0.0110025 -0.000470012 0.00333862)
(0.00355762 -0.00121206 0.00330387)
(0.00672218 0.00033597 -0.027918)
(0.0209144 0.000568883 -0.00955412)
(0.0271154 0.000771347 -0.00432415)
(0.0281754 0.000950558 -0.00253253)
(0.0284276 0.00105573 -0.00153118)
(0.0287911 0.00108466 -0.000863427)
(0.0287559 0.00105355 -0.000394358)
(0.0280841 0.000963638 1.65598e-05)
(0.0267526 0.000811624 0.000474879)
(0.0246338 0.000597524 0.00105983)
(0.0214744 0.000327309 0.00179906)
(0.0169819 4.09568e-06 0.00260486)
(0.0110531 -0.000468009 0.00331841)
(0.00361835 -0.00109505 0.00329141)
(0.00674761 0.000278869 -0.0279763)
(0.0209917 0.000468294 -0.00962905)
(0.0272424 0.000634471 -0.00438941)
(0.028322 0.00077975 -0.00258442)
(0.028564 0.000860922 -0.00157488)
(0.0289004 0.000878162 -0.000896939)
(0.0288359 0.00084548 -0.000419979)
(0.028134 0.000763791 -4.49889e-06)
(0.0267754 0.000630723 0.000458718)
(0.0246401 0.000448346 0.00104415)
(0.02148 0.000222905 0.00177752)
(0.0170029 -4.26944e-05 0.00257877)
(0.011096 -0.000427431 0.00329573)
(0.00365929 -0.00091767 0.00327822)
(0.00677077 0.00020847 -0.0280329)
(0.021056 0.000361489 -0.00969675)
(0.0273501 0.000485974 -0.0044451)
(0.0284465 0.000587211 -0.00263162)
(0.0286786 0.000642078 -0.00161673)
(0.028991 0.000650952 -0.000932571)
(0.0289014 0.000621352 -0.000449465)
(0.0281745 0.000554023 -2.79707e-05)
(0.0267941 0.000449047 0.00043903)
(0.0246459 0.000309701 0.00102442)
(0.0214853 0.000141124 0.00175374)
(0.0170182 -5.52399e-05 0.00255354)
(0.011125 -0.000342206 0.00327602)
(0.0036768 -0.000703758 0.00326724)
(0.00680052 8.88638e-05 -0.0280778)
(0.0211173 0.000228092 -0.00974326)
(0.0274288 0.00032509 -0.0044813)
(0.0285342 0.000376185 -0.00265797)
(0.0287649 0.000400968 -0.00163894)
(0.0290616 0.00040397 -0.000950916)
(0.0289531 0.000382252 -0.000462299)
(0.0282084 0.000335367 -3.72515e-05)
(0.0268145 0.000266013 0.00043069)
(0.0246599 0.000177744 0.00101407)
(0.0215011 7.46958e-05 0.00173938)
(0.0170421 -4.32151e-05 0.00253788)
(0.0111602 -0.000224478 0.00326495)
(0.00369569 -0.000476513 0.00326347)
(0.00689755 4.67211e-06 -0.0278958)
(0.0212821 7.46749e-05 -0.00957644)
(0.0275434 0.000118983 -0.00436622)
(0.0286303 0.000131329 -0.00257023)
(0.0288644 0.000135617 -0.00156739)
(0.029152 0.000136059 -0.000893835)
(0.0290262 0.000128017 -0.000418397)
(0.0282666 0.000110594 -2.16562e-06)
(0.0268626 8.56934e-05 0.000457188)
(0.024704 5.50051e-05 0.00103108)
(0.0215483 2.06358e-05 0.00174659)
(0.017098 -1.76168e-05 0.00253839)
(0.0112225 -7.99578e-05 0.00326721)
(0.00374486 -0.000180055 0.00327866)
(0.00186041 -0.000693134 -0.0189337)
(0.009142 -0.000564626 3.36533e-05)
(0.0127445 -0.000514956 0.00268211)
(0.0137008 -0.000480277 0.00279783)
(0.014118 -0.000328142 0.00311414)
(0.0142866 -9.19084e-05 0.00340207)
(0.0136855 0.000293075 0.00357159)
(0.0120519 0.000839379 0.00376089)
(0.00945232 0.00125077 0.00409723)
(0.00600236 0.00125826 0.00451995)
(0.00189642 0.000531334 0.0049746)
(-0.00194264 -0.00161489 0.00559561)
(-0.00211859 -0.00372632 0.00611239)
(-0.00106983 -0.00384186 0.00514073)
(0.00106463 -0.0018208 -0.0215199)
(0.00858676 -0.00198232 -0.00322125)
(0.0122881 -0.00184915 -0.000447554)
(0.0136882 -0.00166101 0.000311822)
(0.0150253 -0.00134547 0.00132636)
(0.0164791 -0.000900012 0.00211946)
(0.0175312 -0.000342224 0.00273047)
(0.0180092 0.000311305 0.00338847)
(0.0178418 0.00101381 0.00415474)
(0.0168688 0.00158902 0.0049718)
(0.0149423 0.00160272 0.00580402)
(0.0122681 0.000585075 0.00654134)
(0.00821103 -0.00219229 0.00747977)
(0.00301192 -0.00488497 0.00742582)
(0.000852839 -0.00204846 -0.0209199)
(0.00838259 -0.00252271 -0.00280732)
(0.0117999 -0.0025063 -0.00066756)
(0.0129813 -0.00234693 -0.000359687)
(0.0141755 -0.00210801 0.000446745)
(0.0155447 -0.00182085 0.00120053)
(0.0165988 -0.00146957 0.00179659)
(0.0171883 -0.00103226 0.00244544)
(0.0173568 -0.000521402 0.00324239)
(0.0170636 -4.85813e-05 0.00417608)
(0.0160114 5.85003e-05 0.00523972)
(0.0137555 -0.000557732 0.00643288)
(0.00995297 -0.00198442 0.00787332)
(0.00395476 -0.00283361 0.00801007)
(0.000825807 -0.00223485 -0.0209795)
(0.00825984 -0.00294179 -0.00291407)
(0.0115306 -0.00293259 -0.000894949)
(0.0126294 -0.00269122 -0.000675551)
(0.0137887 -0.0024067 3.9214e-05)
(0.015055 -0.00213473 0.000698016)
(0.0159679 -0.00186023 0.00122841)
(0.0164238 -0.00153992 0.00182493)
(0.0164619 -0.00116308 0.00262249)
(0.0160042 -0.00077182 0.00365844)
(0.014827 -0.000498967 0.00497235)
(0.0125712 -0.000537699 0.00654777)
(0.00884213 -0.000995949 0.00827658)
(0.00315408 -0.00105781 0.00831874)
(0.000811732 -0.00229718 -0.0210311)
(0.00814796 -0.00307271 -0.00308389)
(0.0113184 -0.00304105 -0.00116898)
(0.0123627 -0.00273427 -0.000993105)
(0.01349 -0.0023959 -0.000323947)
(0.0146705 -0.00210292 0.000292884)
(0.0154863 -0.00183832 0.000782157)
(0.0158573 -0.00156095 0.00135419)
(0.0158419 -0.00124113 0.0021646)
(0.0153483 -0.000891273 0.00330397)
(0.0141199 -0.000597915 0.00484296)
(0.0117739 -0.000505202 0.00670419)
(0.00798556 -0.000625883 0.00857198)
(0.00264163 -0.000336371 0.00849119)
(0.000781653 -0.00224624 -0.0209913)
(0.00803736 -0.00301342 -0.00313545)
(0.0111441 -0.00295474 -0.0013255)
(0.0121691 -0.00260414 -0.00119748)
(0.0132844 -0.00222367 -0.000550818)
(0.0144408 -0.00190029 4.18016e-05)
(0.0152124 -0.00162279 0.000498713)
(0.0155453 -0.00136134 0.00105213)
(0.0155201 -0.00108721 0.0018727)
(0.0150366 -0.000813287 0.00308394)
(0.0138068 -0.000597765 0.0047676)
(0.0114174 -0.000514679 0.00679811)
(0.00757695 -0.000511973 0.00873745)
(0.00237877 -0.000116751 0.00858769)
(0.000755409 -0.00210856 -0.0209573)
(0.0079531 -0.00282509 -0.00315996)
(0.0110062 -0.00272237 -0.00143876)
(0.0120212 -0.0023389 -0.00134485)
(0.0131339 -0.00193326 -0.000704251)
(0.0142879 -0.00159266 -0.000120415)
(0.0150429 -0.00130963 0.000319431)
(0.015369 -0.00106347 0.000863413)
(0.0153573 -0.000835294 0.00169372)
(0.0148994 -0.000643495 0.00294821)
(0.0136828 -0.000525739 0.00471323)
(0.0112719 -0.000504249 0.00683815)
(0.0073943 -0.000498451 0.00882304)
(0.00225634 -0.000114742 0.00863885)
(0.000743518 -0.00190934 -0.0209544)
(0.00788146 -0.00253036 -0.00322867)
(0.0108993 -0.00238509 -0.0015626)
(0.0119061 -0.00198773 -0.00148233)
(0.0130167 -0.00158187 -0.000828112)
(0.0141683 -0.00124668 -0.000243341)
(0.0149162 -0.000973921 0.00019496)
(0.0152475 -0.000751566 0.000742734)
(0.0152548 -0.000571178 0.00158242)
(0.0148222 -0.00045551 0.00286261)
(0.0136202 -0.000429424 0.00467323)
(0.0111997 -0.000483693 0.00685243)