/*--------------------------------*- C++ -*----------------------------------*\
| =========                 |                                                 |
| \\      /  F ield         | OpenFOAM: The Open Source CFD Toolbox           |
|  \\    /   O peration     | Version:  5.0                                   |
|   \\  /    A nd           | Web:      www.OpenFOAM.org                      |
|    \\/     M anipulation  |                                                 |
\*---------------------------------------------------------------------------*/
FoamFile
{
    version     2.0;
    format      ascii;
    class       surfaceScalarField;
    location    "39";
    object      phi;
}
// * * * * * * * * * * * * * * * * * * * * * * * * * * * * * * * * * * * * * //

dimensions      [0 3 -1 0 0 0 0];

internalField   nonuniform List<scalar> 
3052
(
-1.61977e-17
-9.45253e-17
7.25363e-17
-8.72787e-17
2.72318e-16
-2.0843e-16
4.98244e-16
-2.37193e-16
7.16108e-16
-2.24766e-16
9.44674e-16
-2.32869e-16
1.18358e-15
-2.42488e-16
1.42463e-15
-2.44564e-16
1.66094e-15
-2.3987e-16
1.8884e-15
-2.30794e-16
2.10356e-15
-2.18274e-16
2.3038e-15
-2.03004e-16
2.48641e-15
-1.85092e-16
2.64939e-15
-1.65217e-16
2.79066e-15
-1.43415e-16
2.91122e-15
-1.22457e-16
3.01261e-15
-1.03121e-16
3.09516e-15
-8.40027e-17
3.15778e-15
-6.39567e-17
3.20127e-15
-4.44825e-17
3.22643e-15
-2.59739e-17
3.23527e-15
-9.3309e-18
3.22808e-15
6.72895e-18
3.20524e-15
2.25864e-17
3.16694e-15
3.79529e-17
3.1169e-15
4.98253e-17
3.05749e-15
5.91234e-17
2.99166e-15
6.57239e-17
2.9195e-15
7.19848e-17
2.84293e-15
7.66908e-17
2.7615e-15
8.17777e-17
2.67652e-15
8.59046e-17
2.58749e-15
9.03508e-17
2.49557e-15
9.37006e-17
2.40004e-15
9.75052e-17
2.30207e-15
1.00224e-16
2.20054e-15
1.03835e-16
2.09555e-15
1.0741e-16
1.98561e-15
1.12266e-16
1.87123e-15
1.16655e-16
1.75204e-15
1.21244e-16
1.62904e-15
1.24996e-16
1.50172e-15
1.29225e-16
1.37072e-15
1.32978e-16
1.23612e-15
1.3664e-16
1.09915e-15
1.39072e-16
9.60688e-16
1.40666e-16
8.21931e-16
1.41203e-16
6.83506e-16
1.40984e-16
5.47876e-16
1.38074e-16
4.17721e-16
1.32457e-16
2.96588e-16
1.22985e-16
1.90578e-16
1.09285e-16
9.50347e-17
9.77776e-17
3.21635e-17
6.40622e-17
3.22247e-17
5.17784e-17
-1.43162e-16
1.45631e-16
-2.10557e-16
2.45489e-16
-3.43219e-16
3.7725e-16
-3.88429e-16
5.64157e-16
-4.23898e-16
7.66524e-16
-4.44192e-16
9.70408e-16
-4.54178e-16
1.17272e-15
-4.5432e-16
1.37098e-15
-4.44878e-16
1.56162e-15
-4.2777e-16
1.74192e-15
-4.04054e-16
1.90924e-15
-3.7503e-16
2.0618e-15
-3.41669e-16
2.19811e-15
-3.05309e-16
2.31832e-15
-2.66798e-16
2.4215e-15
-2.28444e-16
2.50719e-15
-1.90977e-16
2.57527e-15
-1.53951e-16
2.62706e-15
-1.16835e-16
2.66261e-15
-8.07873e-17
2.68273e-15
-4.61356e-17
2.68736e-15
-1.39195e-17
2.67835e-15
1.62821e-17
2.65688e-15
4.43734e-17
2.62533e-15
7.00676e-17
2.58425e-15
9.11258e-17
2.5355e-15
1.08289e-16
2.47946e-15
1.2179e-16
2.41836e-15
1.33496e-16
2.35226e-15
1.43356e-16
2.28284e-15
1.52734e-16
2.20998e-15
1.60869e-16
2.13467e-15
1.68692e-16
2.0563e-15
1.75434e-16
1.97564e-15
1.82045e-16
1.89187e-15
1.87824e-16
1.80568e-15
1.94096e-16
1.71626e-15
2.00573e-16
1.62426e-15
2.07902e-16
1.52891e-15
2.15074e-16
1.43048e-15
2.22579e-16
1.32824e-15
2.29663e-16
1.22312e-15
2.36894e-16
1.1151e-15
2.43579e-16
1.00478e-15
2.49784e-16
8.92207e-16
2.54594e-16
7.78454e-16
2.57855e-16
6.64641e-16
2.58872e-16
5.52366e-16
2.57579e-16
4.42226e-16
2.52449e-16
3.35502e-16
2.42245e-16
2.37228e-16
2.27199e-16
1.47757e-16
2.01993e-16
8.03202e-17
1.70124e-16
2.5502e-17
1.19127e-16
5.77417e-17
6.35772e-18
-1.60501e-16
7.26624e-17
-2.91318e-16
1.68952e-16
-4.43631e-16
2.91758e-16
-5.17981e-16
4.3541e-16
-5.73011e-16
5.94427e-16
-6.07116e-16
7.57248e-16
-6.20221e-16
9.19346e-16
-6.19184e-16
1.07852e-15
-6.06445e-16
1.23215e-15
-5.8308e-16
1.37745e-15
-5.50565e-16
1.51218e-15
-5.10787e-16
1.63504e-15
-4.65506e-16
1.74513e-15
-4.16043e-16
1.84184e-15
-3.64034e-16
1.92436e-15
-3.11175e-16
1.99195e-15
-2.58658e-16
2.04484e-15
-2.06608e-16
2.08378e-15
-1.55484e-16
2.10949e-15
-1.05868e-16
2.12257e-15
-5.85782e-17
2.12373e-15
-1.41555e-17
2.11395e-15
2.68464e-17
2.09486e-15
6.44269e-17
2.06785e-15
9.7807e-17
2.03361e-15
1.26218e-16
1.99278e-15
1.49686e-16
1.94616e-15
1.69032e-16
1.89485e-15
1.85154e-16
1.83979e-15
1.98836e-16
1.7819e-15
2.10821e-16
1.72156e-15
2.21488e-16
1.65913e-15
2.31035e-16
1.59482e-15
2.39651e-16
1.5288e-15
2.47677e-16
1.46092e-15
2.55496e-16
1.39115e-15
2.63489e-16
1.31956e-15
2.71961e-16
1.2462e-15
2.80959e-16
1.17084e-15
2.90309e-16
1.0934e-15
2.99785e-16
1.01382e-15
3.09347e-16
9.32182e-16
3.18792e-16
8.48579e-16
3.278e-16
7.63209e-16
3.35832e-16
6.76314e-16
3.42364e-16
5.8853e-16
3.4676e-16
5.00905e-16
3.48471e-16
4.14396e-16
3.46506e-16
3.29667e-16
3.39535e-16
2.48696e-16
3.26606e-16
1.72668e-16
3.04717e-16
1.07468e-16
2.74055e-16
5.2433e-17
2.26198e-16
1.56011e-17
1.58386e-16
7.35668e-17
-1.17273e-17
-1.45922e-16
6.30476e-17
-3.54183e-16
1.28971e-16
-5.06762e-16
2.16499e-16
-6.06191e-16
3.21401e-16
-6.80053e-16
4.36365e-16
-7.24581e-16
5.57015e-16
-7.43186e-16
6.79443e-16
-7.43272e-16
8.0064e-16
-7.28524e-16
9.17726e-16
-7.00745e-16
1.02837e-15
-6.61917e-16
1.13087e-15
-6.14101e-16
1.22406e-15
-5.59415e-16
1.30709e-15
-4.9974e-16
1.37934e-15
-4.36824e-16
1.44013e-15
-3.72464e-16
1.48903e-15
-3.07975e-16
1.52616e-15
-2.44167e-16
1.55215e-15
-1.81759e-16
1.56759e-15
-1.2157e-16
1.57327e-15
-6.43569e-17
1.56982e-15
-1.0874e-17
1.55828e-15
3.83607e-17
1.53974e-15
8.29666e-17
1.51536e-15
1.22436e-16
1.48563e-15
1.5629e-16
1.45122e-15
1.8466e-16
1.4126e-15
2.0814e-16
1.3707e-15
2.27565e-16
1.32605e-15
2.43766e-16
1.27951e-15
2.57444e-16
1.23127e-15
2.69148e-16
1.18198e-15
2.79431e-16
1.13162e-15
2.88758e-16
1.08057e-15
2.97587e-16
1.02858e-15
3.06334e-16
9.7596e-16
3.15277e-16
9.2255e-16
3.2473e-16
8.68505e-16
3.34776e-16
8.13605e-16
3.45354e-16
7.57878e-16
3.56305e-16
7.01058e-16
3.67393e-16
6.4327e-16
3.78293e-16
5.84395e-16
3.88645e-16
5.24455e-16
3.97947e-16
4.63408e-16
4.05608e-16
4.01854e-16
4.10835e-16
3.40574e-16
4.12801e-16
2.80245e-16
4.10701e-16
2.21426e-16
4.02752e-16
1.64592e-16
3.86784e-16
1.13647e-16
3.62645e-16
6.79566e-17
3.22267e-16
3.46651e-17
2.65392e-16
1.37285e-17
1.82771e-16
8.74484e-17
5.7407e-18
-1.47217e-16
3.93842e-17
-3.78987e-16
8.25873e-17
-5.46702e-16
1.39468e-16
-6.64422e-16
2.08369e-16
-7.5118e-16
2.85689e-16
-8.03622e-16
3.68493e-16
-8.26973e-16
4.53501e-16
-8.28705e-16
5.38009e-16
-8.13148e-16
6.19677e-16
-7.82518e-16
6.96433e-16
-7.38907e-16
7.67029e-16
-6.85029e-16
8.3061e-16
-6.23324e-16
8.86492e-16
-5.55903e-16
9.34112e-16
-4.84696e-16
9.73052e-16
-4.11633e-16
1.00302e-15
-3.38188e-16
1.02419e-15
-2.65558e-16
1.03699e-15
-1.94736e-16
1.04202e-15
-1.26682e-16
1.03985e-15
-6.22834e-17
1.03123e-15
-2.31709e-18
1.01692e-15
5.26108e-17
9.97927e-16
1.02041e-16
9.7497e-16
1.4557e-16
9.48689e-16
1.82949e-16
9.19428e-16
2.14318e-16
8.8782e-16
2.40265e-16
8.54329e-16
2.61516e-16
8.19592e-16
2.78893e-16
7.8391e-16
2.9313e-16
7.47717e-16
3.0507e-16
7.11237e-16
3.15278e-16
6.7491e-16
3.24388e-16
6.38814e-16
3.3292e-16
6.03093e-16
3.4141e-16
5.6771e-16
3.50091e-16
5.32789e-16
3.5929e-16
4.98208e-16
3.69238e-16
4.63944e-16
3.79872e-16
4.29845e-16
3.90964e-16
3.95831e-16
4.02297e-16
3.61654e-16
4.13593e-16
3.27229e-16
4.24385e-16
2.92319e-16
4.34157e-16
2.56855e-16
4.42328e-16
2.21227e-16
4.4797e-16
1.86134e-16
4.50052e-16
1.51757e-16
4.47724e-16
1.18147e-16
4.3886e-16
8.66256e-17
4.21908e-16
5.73532e-17
3.92914e-16
3.40358e-17
3.5107e-16
1.45022e-17
2.86991e-16
2.27906e-18
1.96355e-16
8.98019e-17
1.0327e-17
-1.54669e-16
1.83499e-17
-3.85051e-16
3.54436e-17
-5.65202e-16
6.53071e-17
-6.95898e-16
1.03099e-16
-7.89966e-16
1.46742e-16
-8.47679e-16
1.94226e-16
-8.74477e-16
2.43547e-16
-8.77688e-16
2.92673e-16
-8.61767e-16
3.39705e-16
-8.29128e-16
3.83444e-16
-7.82378e-16
4.23042e-16
-7.24437e-16
4.57778e-16
-6.57879e-16
4.87092e-16
-5.85001e-16
5.10637e-16
-5.07978e-16
5.28074e-16
-4.2881e-16
5.39328e-16
-3.49165e-16
5.4453e-16
-2.70469e-16
5.44081e-16
-1.93934e-16
5.38391e-16
-1.20665e-16
5.28075e-16
-5.16325e-17
5.1372e-16
1.23234e-17
4.96078e-16
7.0555e-17
4.75801e-16
1.22579e-16
4.53566e-16
1.68114e-16
4.2975e-16
2.07037e-16
4.04833e-16
2.3958e-16
3.79153e-16
2.66266e-16
3.53205e-16
2.87814e-16
3.27327e-16
3.05015e-16
3.01932e-16
3.187e-16
2.77246e-16
3.29701e-16
2.53674e-16
3.38701e-16
2.31374e-16
3.46418e-16
2.10466e-16
3.53522e-16
1.90931e-16
3.60556e-16
1.72896e-16
3.67749e-16
1.56325e-16
3.75465e-16
1.41159e-16
3.8404e-16
1.27234e-16
3.93453e-16
1.14411e-16
4.03513e-16
1.02445e-16
4.14006e-16
9.12186e-17
4.24628e-16
8.05097e-17
4.34914e-16
7.01037e-17
4.44327e-16
5.9882e-17
4.52267e-16
4.982e-17
4.5793e-16
3.99813e-17
4.60233e-16
3.08982e-17
4.57555e-16
2.25309e-17
4.48051e-16
1.42517e-17
4.29734e-16
7.98058e-18
4.0144e-16
2.02925e-18
3.55827e-16
-2.01776e-19
2.90103e-16
-1.21739e-18
1.98159e-16
8.85822e-17
2.29895e-18
-1.57205e-16
-2.72325e-18
-3.80659e-16
-3.59451e-18
-5.65272e-16
1.34757e-18
-7.01781e-16
9.4992e-18
-7.98734e-16
2.08822e-17
-8.59369e-16
3.54261e-17
-8.89057e-16
5.1579e-17
-8.93775e-16
6.69199e-17
-8.77089e-16
8.0746e-17
-8.43009e-16
9.29644e-17
-7.94732e-16
1.02916e-16
-7.34546e-16
1.10057e-16
-6.65136e-16
1.14e-16
-5.88997e-16
1.14466e-16
-5.0846e-16
1.1128e-16
-4.25602e-16
1.04416e-16
-3.42271e-16
9.40502e-17
-2.60049e-16
8.04831e-17
-1.80339e-16
6.41683e-17
-1.04312e-16
4.55939e-17
-3.30338e-17
2.53274e-17
3.26334e-17
3.90478e-18
9.1996e-17
-1.8105e-17
1.44631e-16
-4.02448e-17
1.90277e-16
-6.20973e-17
2.2897e-16
-8.33656e-17
2.60947e-16
-1.03689e-16
2.86758e-16
-1.22787e-16
3.07102e-16
-1.40317e-16
3.22801e-16
-1.56045e-16
3.34655e-16
-1.69695e-16
3.43611e-16
-1.81015e-16
3.50245e-16
-1.89868e-16
3.55489e-16
-1.96271e-16
3.60073e-16
-2.00112e-16
3.64544e-16
-2.01422e-16
3.69154e-16
-2.00291e-16
3.7441e-16
-1.9687e-16
3.80639e-16
-1.91275e-16
3.8786e-16
-1.83743e-16
3.95928e-16
-1.74475e-16
4.04684e-16
-1.63699e-16
4.13819e-16
-1.51696e-16
4.22921e-16
-1.38821e-16
4.31391e-16
-1.2517e-16
4.3845e-16
-1.10663e-16
4.4343e-16
-9.53696e-17
4.45466e-16
-7.97631e-17
4.42717e-16
-6.49528e-17
4.33564e-16
-5.05725e-17
4.16093e-16
-3.72163e-17
3.86639e-16
-2.38554e-17
3.43423e-16
-1.34039e-17
2.79638e-16
-5.66457e-18
1.89649e-16
8.28907e-17
-6.14693e-18
-1.50819e-16
-2.01202e-17
-3.67207e-16
-3.68626e-17
-5.49183e-16
-5.40508e-17
-6.84887e-16
-7.19117e-17
-7.81157e-16
-8.96015e-17
-8.42106e-16
-1.06724e-16
-8.7249e-16
-1.23394e-16
-8.77716e-16
-1.39219e-16
-8.61874e-16
-1.54973e-16
-8.27908e-16
-1.7153e-16
-7.78839e-16
-1.8904e-16
-7.17668e-16
-2.07658e-16
-6.47082e-16
-2.27522e-16
-5.69625e-16
-2.48744e-16
-4.87688e-16
-2.71365e-16
-4.03416e-16
-2.95317e-16
-3.18741e-16
-3.20435e-16
-2.35374e-16
-3.46412e-16
-1.54801e-16
-3.72868e-16
-7.82878e-17
-3.99363e-16
-6.94158e-18
-4.25461e-16
5.83579e-17
-4.50705e-16
1.16927e-16
-4.7467e-16
1.68311e-16
-4.96934e-16
2.12336e-16
-5.17193e-16
2.49094e-16
-5.35185e-16
2.78917e-16
-5.50698e-16
3.02326e-16
-5.63475e-16
3.20066e-16
-5.73314e-16
3.32925e-16
-5.79985e-16
3.41747e-16
-5.83316e-16
3.47422e-16
-5.83188e-16
3.50665e-16
-5.79606e-16
3.52466e-16
-5.72404e-16
3.53479e-16
-5.61478e-16
3.54217e-16
-5.47129e-16
3.55422e-16
-5.29597e-16
3.57472e-16
-5.08852e-16
3.6049e-16
-4.85038e-16
3.64614e-16
-4.58404e-16
3.69856e-16
-4.29219e-16
3.76062e-16
-3.97712e-16
3.82966e-16
-3.64228e-16
3.90155e-16
-3.29261e-16
3.97068e-16
-2.93288e-16
4.03002e-16
-2.56439e-16
4.07274e-16
-2.18766e-16
4.08907e-16
-1.81022e-16
4.06297e-16
-1.442e-16
3.97887e-16
-1.09398e-16
3.81368e-16
-7.66927e-17
3.54899e-16
-4.7886e-17
3.13967e-16
-2.40019e-17
2.5457e-16
-7.1313e-18
1.72727e-16
7.57267e-17
-1.09761e-17
-1.40068e-16
-3.41498e-17
-3.43798e-16
-6.55825e-17
-5.17159e-16
-1.02782e-16
-6.47081e-16
-1.44213e-16
-7.39632e-16
-1.87939e-16
-7.98797e-16
-2.32021e-16
-8.29038e-16
-2.76021e-16
-8.34385e-16
-3.19862e-16
-8.18735e-16
-3.63326e-16
-7.85174e-16
-4.06346e-16
-7.36547e-16
-4.48919e-16
-6.75771e-16
-4.91015e-16
-6.056e-16
-5.32622e-16
-5.28618e-16
-5.73665e-16
-4.4722e-16
-6.14053e-16
-3.63591e-16
-6.53653e-16
-2.79705e-16
-6.92253e-16
-1.97335e-16
-7.29577e-16
-1.18023e-16
-7.65298e-16
-4.30943e-17
-7.99079e-16
2.6345e-17
-8.30557e-16
8.93929e-17
-8.59395e-16
1.45355e-16
-8.85195e-16
1.93784e-16
-9.07636e-16
2.34528e-16
-9.26463e-16
2.67773e-16
-9.41536e-16
2.93926e-16
-9.52683e-16
3.13538e-16
-9.59778e-16
3.27335e-16
-9.62566e-16
3.36023e-16
-9.60864e-16
3.40449e-16
-9.54597e-16
3.41646e-16
-9.44063e-16
3.40662e-16
-9.29093e-16
3.3809e-16
-9.09562e-16
3.34572e-16
-8.85563e-16
3.30886e-16
-8.57242e-16
3.27786e-16
-8.24678e-16
3.25623e-16
-7.88057e-16
3.24583e-16
-7.47609e-16
3.24878e-16
-7.03619e-16
3.26556e-16
-6.56354e-16
3.29532e-16
-6.06116e-16
3.3357e-16
-5.53342e-16
3.38294e-16
-4.98663e-16
3.43205e-16
-4.42661e-16
3.47688e-16
-3.85575e-16
3.51025e-16
-3.27646e-16
3.52285e-16
-2.69947e-16
3.50098e-16
-2.13916e-16
3.42921e-16
-1.60638e-16
3.28947e-16
-1.11505e-16
3.0567e-16
-6.8469e-17
2.70414e-16
-3.37991e-17
2.19996e-16
-1.09084e-17
1.48638e-16
6.476e-17
-1.41849e-17
-1.25491e-16
-4.53588e-17
-3.11481e-16
-8.99175e-17
-4.71207e-16
-1.44088e-16
-5.91722e-16
-2.05427e-16
-6.77839e-16
-2.71124e-16
-7.33277e-16
-3.38838e-16
-7.61761e-16
-4.07101e-16
-7.66613e-16
-4.75236e-16
-7.51128e-16
-5.42659e-16
-7.18298e-16
-6.08864e-16
-6.70891e-16
-6.73491e-16
-6.1167e-16
-7.36287e-16
-5.43343e-16
-7.97023e-16
-4.68407e-16
-8.55513e-16
-3.89258e-16
-9.11541e-16
-3.08076e-16
-9.64902e-16
-2.26851e-16
-1.01534e-15
-1.47381e-16
-1.06262e-15
-7.12173e-17
-1.10645e-15
2.91266e-19
-1.14658e-15
6.6051e-17
-1.18273e-15
1.25147e-16
-1.21464e-15
1.76916e-16
-1.242e-15
2.20836e-16
-1.26448e-15
2.56776e-16
-1.28193e-15
2.85068e-16
-1.2943e-15
3.06255e-16
-1.3015e-15
3.20796e-16
-1.30329e-15
3.2928e-16
-1.29955e-15
3.32533e-16
-1.29052e-15
3.3174e-16
-1.27623e-15
3.27713e-16
-1.25657e-15
3.21419e-16
-1.23149e-15
3.13472e-16
-1.20108e-15
3.04673e-16
-1.16545e-15
2.95813e-16
-1.12466e-15
2.87593e-16
-1.07887e-15
2.80453e-16
-1.02833e-15
2.74686e-16
-9.73335e-16
2.70511e-16
-9.14185e-16
2.68028e-16
-8.51193e-16
2.67196e-16
-7.84709e-16
2.67838e-16
-7.15245e-16
2.69644e-16
-6.43508e-16
2.72188e-16
-5.70159e-16
2.74911e-16
-4.95548e-16
2.77168e-16
-4.20187e-16
2.78118e-16
-3.4538e-16
2.76638e-16
-2.72798e-16
2.71371e-16
-2.03991e-16
2.60673e-16
-1.4105e-16
2.42623e-16
-8.58436e-17
2.15357e-16
-4.23243e-17
1.74513e-16
-1.28142e-17
1.18647e-16
5.1896e-17
-1.6448e-17
-1.08677e-16
-5.39461e-17
-2.72399e-16
-1.09283e-16
-4.14005e-16
-1.77495e-16
-5.21882e-16
-2.55313e-16
-5.99285e-16
-3.39309e-16
-6.49251e-16
-4.26591e-16
-6.74695e-16
-5.15138e-16
-6.78324e-16
-6.0365e-16
-6.62883e-16
-6.91166e-16
-6.3111e-16
-7.76848e-16
-5.85568e-16
-8.6005e-16
-5.28871e-16
-9.40276e-16
-4.63533e-16
-1.01711e-15
-3.91993e-16
-1.09024e-15
-3.16553e-16
-1.15936e-15
-2.39371e-16
-1.22421e-15
-1.62415e-16
-1.28453e-15
-8.74737e-17
-1.34005e-15
-1.60934e-17
-1.39053e-15
5.04059e-17
-1.43579e-15
1.10933e-16
-1.47564e-15
1.64642e-16
-1.50993e-15
2.10847e-16
-1.5384e-15
2.48959e-16
-1.56066e-15
2.78763e-16
-1.57661e-15
3.00865e-16
-1.58643e-15
3.16038e-16
-1.58998e-15
3.24401e-16
-1.58703e-15
3.26448e-16
-1.57784e-15
3.2354e-16
-1.5626e-15
3.16742e-16
-1.54125e-15
3.06658e-16
-1.51369e-15
2.94216e-16
-1.48001e-15
2.80198e-16
-1.44032e-15
2.6544e-16
-1.39476e-15
2.50742e-16
-1.34346e-15
2.36806e-16
-1.2866e-15
2.24139e-16
-1.22447e-15
2.13104e-16
-1.15739e-15
2.03959e-16
-1.08569e-15
1.96837e-16
-1.00972e-15
1.91746e-16
-9.29857e-16
1.88582e-16
-8.46665e-16
1.8711e-16
-7.60922e-16
1.86974e-16
-6.7335e-16
1.87728e-16
-5.84442e-16
1.88814e-16
-4.94865e-16
1.89553e-16
-4.06104e-16
1.89048e-16
-3.20127e-16
1.86179e-16
-2.38981e-16
1.79615e-16
-1.6437e-16
1.68382e-16
-1.00347e-16
1.49557e-16
-4.86066e-17
1.22708e-16
-1.46409e-17
8.3133e-17
3.71657e-17
-1.83374e-17
-8.97848e-17
-6.05199e-17
-2.28422e-16
-1.23954e-16
-3.48434e-16
-2.03018e-16
-4.40999e-16
-2.93697e-16
-5.07682e-16
-3.92065e-16
-5.50657e-16
-4.94761e-16
-5.72021e-16
-5.99294e-16
-5.73827e-16
-7.03934e-16
-5.58329e-16
-8.07362e-16
-5.27836e-16
-9.08501e-16
-4.84687e-16
-1.00643e-15
-4.31251e-16
-1.10045e-15
-3.69849e-16
-1.19e-15
-3.02786e-16
-1.27463e-15
-2.32267e-16
-1.354e-15
-1.60372e-16
-1.42777e-15
-8.90318e-17
-1.49566e-15
-1.99642e-17
-1.55743e-15
4.52944e-17
-1.61285e-15
1.05457e-16
-1.66176e-15
1.59473e-16
-1.70408e-15
2.06592e-16
-1.73983e-15
2.46236e-16
-1.76882e-15
2.77634e-16
-1.79046e-15
3.00196e-16
-1.80466e-15
3.14947e-16
-1.81197e-15
3.23294e-16
-1.81236e-15
3.2481e-16
-1.80548e-15
3.19664e-16
-1.7916e-15
3.09795e-16
-1.77102e-15
2.96363e-16
-1.74376e-15
2.79668e-16
-1.70974e-15
2.60538e-16
-1.66908e-15
2.39922e-16
-1.62193e-15
2.18715e-16
-1.56846e-15
1.97729e-16
-1.50886e-15
1.77681e-16
-1.44334e-15
1.59118e-16
-1.37221e-15
1.42457e-16
-1.2958e-15
1.27995e-16
-1.21446e-15
1.15912e-16
-1.12856e-15
1.06272e-16
-1.03852e-15
9.90361e-17
-9.44923e-16
9.40417e-17
-8.48588e-16
9.10403e-17
-7.50304e-16
8.96884e-17
-6.50639e-16
8.95624e-17
-5.50395e-16
9.0157e-17
-4.51225e-16
9.08288e-17
-3.55326e-16
9.07935e-17
-2.64606e-16
8.92497e-17
-1.82251e-16
8.47011e-17
-1.10103e-16
7.78676e-17
-5.42784e-17
6.40908e-17
-1.67613e-17
4.46195e-17
2.03271e-17
-1.94086e-17
-6.9894e-17
-6.51271e-17
-1.80851e-16
-1.34184e-16
-2.77208e-16
-2.20865e-16
-3.52404e-16
-3.20639e-16
-4.06857e-16
-4.29267e-16
-4.41694e-16
-5.43019e-16
-4.58167e-16
-6.59073e-16
-4.57712e-16
-7.75363e-16
-4.42025e-16
-8.90309e-16
-4.13005e-16
-1.00258e-15
-3.72637e-16
-1.11111e-15
-3.2302e-16
-1.21501e-15
-2.6628e-16
-1.31362e-15
-2.04545e-16
-1.40638e-15
-1.3989e-16
-1.49289e-15
-7.42951e-17
-1.57276e-15
-9.59406e-18
-1.64572e-15
5.25512e-17
-1.71152e-15
1.10661e-16
-1.76996e-15
1.63483e-16
-1.8209e-15
2.10034e-16
-1.86424e-15
2.49631e-16
-1.90018e-15
2.81982e-16
-1.92885e-15
3.06191e-16
-1.94949e-15
3.20752e-16
-1.96175e-15
3.27143e-16
-1.96674e-15
3.28253e-16
-1.96425e-15
3.2229e-16
-1.95375e-15
3.09158e-16
-1.93597e-15
2.92081e-16
-1.91125e-15
2.7181e-16
-1.8794e-15
2.48053e-16
-1.84042e-15
2.21878e-16
-1.7945e-15
1.94377e-16
-1.74184e-15
1.66476e-16
-1.68264e-15
1.38995e-16
-1.61712e-15
1.1266e-16
-1.54555e-15
8.80434e-17
-1.46821e-15
6.56022e-17
-1.38545e-15
4.56774e-17
-1.29763e-15
2.85024e-17
-1.20512e-15
1.41952e-17
-1.10836e-15
2.77242e-18
-1.00794e-15
-5.83354e-18
-9.04724e-16
-1.17861e-17
-7.99512e-16
-1.53039e-17
-6.92928e-16
-1.66505e-17
-5.85844e-16
-1.61298e-17
-4.79983e-16
-1.41084e-17
-3.77611e-16
-1.10643e-17
-2.81337e-16
-7.56631e-18
-1.92833e-16
-3.07951e-18
-1.17559e-16
-3.81842e-19
-5.64857e-17
2.71479e-18
-1.66192e-17
2.75312e-18
3.57691e-18
-2.00511e-17
-4.92984e-17
-6.78169e-17
-1.3128e-16
-1.40043e-16
-2.02804e-16
-2.31069e-16
-2.59382e-16
-3.36202e-16
-3.00632e-16
-4.50924e-16
-3.26579e-16
-5.71305e-16
-3.3765e-16
-6.94292e-16
-3.34633e-16
-8.17626e-16
-3.1868e-16
-9.39514e-16
-2.91226e-16
-1.05848e-15
-2.53915e-16
-1.17329e-15
-2.08526e-16
-1.28299e-15
-1.56966e-16
-1.38679e-15
-1.0116e-16
-1.4841e-15
-4.3037e-17
-1.57443e-15
1.55585e-17
-1.65741e-15
7.28934e-17
-1.73273e-15
1.27396e-16
-1.80021e-15
1.77661e-16
-1.85966e-15
2.22512e-16
-1.91097e-15
2.61012e-16
-1.95404e-15
2.92501e-16
-1.98892e-15
3.16764e-16
-2.01576e-15
3.32997e-16
-2.03415e-15
3.39125e-16
-2.04418e-15
3.37118e-16
-2.0467e-15
3.30655e-16
-2.04164e-15
3.17126e-16
-2.02894e-15
2.96409e-16
-2.00864e-15
2.71846e-16
-1.98064e-15
2.43943e-16
-1.94526e-15
2.1292e-16
-1.90276e-15
1.79696e-16
-1.85334e-15
1.4534e-16
-1.79719e-15
1.10777e-16
-1.73456e-15
7.68538e-17
-1.66566e-15
4.42783e-17
-1.59076e-15
1.36737e-17
-1.51017e-15
-1.44869e-17
-1.4242e-15
-3.98084e-17
-1.33323e-15
-6.20176e-17
-1.23762e-15
-8.0946e-17
-1.13778e-15
-9.65116e-17
-1.03434e-15
-1.08705e-16
-9.28123e-16
-1.17584e-16
-8.19954e-16
-1.23241e-16
-7.10455e-16
-1.25772e-16
-6.00506e-16
-1.25272e-16
-4.91879e-16
-1.21846e-16
-3.87002e-16
-1.15566e-16
-2.87763e-16
-1.06289e-16
-1.98107e-16
-9.49654e-17
-1.19161e-16
-7.83901e-17
-5.88976e-17
-6.10981e-17
-1.84759e-17
-3.916e-17
-1.49875e-17
-2.01076e-17
-2.86761e-17
-6.83282e-17
-8.12587e-17
-1.41369e-16
-1.27495e-16
-2.33712e-16
-1.65083e-16
-3.40497e-16
-1.92748e-16
-4.57196e-16
-2.095e-16
-5.79783e-16
-2.14934e-16
-7.05119e-16
-2.09225e-16
-8.30834e-16
-1.92966e-16
-9.55047e-16
-1.67151e-16
-1.07617e-15
-1.33046e-16
-1.19291e-15
-9.2134e-17
-1.30421e-15
-4.6057e-17
-1.40925e-15
3.44874e-18
-1.50738e-15
5.46443e-17
-1.5981e-15
1.05809e-16
-1.68102e-15
1.55339e-16
-1.75587e-15
2.01761e-16
-1.82245e-15
2.43785e-16
-1.88067e-15
2.803e-16
-1.93044e-15
3.10424e-16
-1.97173e-15
3.33499e-16
-2.0043e-15
3.49122e-16
-2.02802e-15
3.56532e-16
-2.04367e-15
3.54593e-16
-2.05192e-15
3.4518e-16
-2.05188e-15
3.30471e-16
-2.04402e-15
3.09191e-16
-2.02924e-15
2.81652e-16
-2.00695e-15
2.49653e-16
-1.97676e-15
2.13979e-16
-1.9393e-15
1.75751e-16
-1.89493e-15
1.35698e-16
-1.84391e-15
9.47298e-17
-1.78643e-15
5.37761e-17
-1.72273e-15
1.36651e-17
-1.65306e-15
-2.48629e-17
-1.57767e-15
-6.11839e-17
-1.49684e-15
-9.47758e-17
-1.41091e-15
-1.25229e-16
-1.32022e-15
-1.52235e-16
-1.2251e-15
-1.75569e-16
-1.12596e-15
-1.95088e-16
-1.02338e-15
-2.10706e-16
-9.18177e-16
-2.22376e-16
-8.11124e-16
-2.30058e-16
-7.02811e-16
-2.33696e-16
-5.94081e-16
-2.33169e-16
-4.86655e-16
-2.28311e-16
-3.82757e-16
-2.1888e-16
-2.85247e-16
-2.04655e-16
-1.95353e-16
-1.83565e-16
-1.19328e-16
-1.58325e-16
-5.70547e-17
-1.2354e-16
-1.6673e-17
-8.16336e-17
-3.17958e-17
-1.99634e-17
-8.23038e-18
-6.67992e-17
-3.24288e-17
-1.38453e-16
-5.37786e-17
-2.28976e-16
-7.27305e-17
-3.33799e-16
-8.69584e-17
-4.48422e-16
-9.45882e-17
-5.68862e-16
-9.44521e-17
-6.92012e-16
-8.60797e-17
-8.15514e-16
-6.95428e-17
-9.37461e-16
-4.53962e-17
-1.05625e-15
-1.45584e-17
-1.17055e-15
2.17876e-17
-1.27927e-15
6.22519e-17
-1.38158e-15
1.05323e-16
-1.47681e-15
1.49426e-16
-1.56446e-15
1.92997e-16
-1.64414e-15
2.34548e-16
-1.71559e-15
2.72731e-16
-1.77863e-15
3.06354e-16
-1.83321e-15
3.34413e-16
-1.87929e-15
3.56049e-16
-1.91684e-15
3.70626e-16
-1.94577e-15
3.77647e-16
-1.96624e-15
3.76626e-16
-1.97927e-15
3.67304e-16
-1.98505e-15
3.50744e-16
-1.98256e-15
3.27858e-16
-1.97221e-15
2.98833e-16
-1.95482e-15
2.64345e-16
-1.93048e-15
2.25515e-16
-1.89926e-15
1.8305e-16
-1.86126e-15
1.3811e-16
-1.81677e-15
9.16168e-17
-1.76606e-15
4.44894e-17
-1.70941e-15
-2.3826e-18
-1.64704e-15
-4.81768e-17
-1.5792e-15
-9.21464e-17
-1.50614e-15
-1.3367e-16
-1.42814e-15
-1.72206e-16
-1.3455e-15
-2.07333e-16
-1.25852e-15
-2.38702e-16
-1.16752e-15
-2.66054e-16
-1.07285e-15
-2.89172e-16
-9.75043e-16
-3.0791e-16
-8.74854e-16
-3.22109e-16
-7.73006e-16
-3.31635e-16
-6.6998e-16
-3.36267e-16
-5.66533e-16
-3.357e-16
-4.64302e-16
-3.29519e-16
-3.6564e-16
-3.1713e-16
-2.72125e-16
-2.97392e-16
-1.87842e-16
-2.70632e-16
-1.12737e-16
-2.31492e-16
-5.61392e-17
-1.83872e-16
-1.77691e-17
-1.21219e-16
-4.96293e-17
-1.86526e-17
1.10673e-17
-6.33981e-17
1.36642e-17
-1.3138e-16
1.60064e-17
-2.1723e-16
1.46471e-17
-3.16561e-16
1.30936e-17
-4.25141e-16
1.40708e-17
-5.39194e-16
1.94717e-17
-6.55764e-16
3.03457e-17
-7.72589e-16
4.70931e-17
-8.87825e-16
6.95484e-17
-9.99902e-16
9.71291e-17
-1.10751e-15
1.28938e-16
-1.20957e-15
1.63845e-16
-1.30528e-15
2.0054e-16
-1.39396e-15
2.37629e-16
-1.47515e-15
2.73682e-16
-1.54845e-15
3.07348e-16
-1.61364e-15
3.37406e-16
-1.67057e-15
3.62795e-16
-1.71926e-15
3.82608e-16
-1.75971e-15
3.96018e-16
-1.79196e-15
4.02413e-16
-1.81612e-15
4.01366e-16
-1.83248e-15
3.92592e-16
-1.84158e-15
3.76111e-16
-1.84356e-15
3.52514e-16
-1.83828e-15
3.22478e-16
-1.82601e-15
2.86566e-16
-1.8071e-15
2.45576e-16
-1.78177e-15
2.00409e-16
-1.75031e-15
1.51893e-16
-1.71289e-15
1.01063e-16
-1.66975e-15
4.89147e-17
-1.62116e-15
-3.61775e-18
-1.56738e-15
-5.56364e-17
-1.50865e-15
-1.06339e-16
-1.4452e-15
-1.54998e-16
-1.37726e-15
-2.00987e-16
-1.30508e-15
-2.43768e-16
-1.22892e-15
-2.82897e-16
-1.14904e-15
-3.18016e-16
-1.06569e-15
-3.48806e-16
-9.79185e-16
-3.75021e-16
-8.89962e-16
-3.96431e-16
-7.98726e-16
-4.12813e-16
-7.06062e-16
-4.23899e-16
-6.12355e-16
-4.29392e-16
-5.18208e-16
-4.28775e-16
-4.25129e-16
-4.21421e-16
-3.35014e-16
-4.06407e-16
-2.50473e-16
-3.82697e-16
-1.71762e-16
-3.46949e-16
-1.05626e-16
-3.01647e-16
-5.02281e-17
-2.38384e-16
-1.43495e-17
-1.58769e-16
-6.40888e-17
-1.71918e-17
2.84573e-17
-5.82738e-17
5.61653e-17
-1.20594e-16
7.97244e-17
-1.98794e-16
9.4071e-17
-2.89203e-16
1.03943e-16
-3.87978e-16
1.127e-16
-4.91647e-16
1.22813e-16
-5.97489e-16
1.35862e-16
-7.03428e-16
1.52669e-16
-8.07746e-16
1.73417e-16
-9.08964e-16
1.97812e-16
-1.00583e-15
2.25228e-16
-1.09735e-15
2.54757e-16
-1.18273e-15
2.85321e-16
-1.26137e-15
3.15667e-16
-1.33282e-15
3.44522e-16
-1.39672e-15
3.70644e-16
-1.45288e-15
3.92971e-16
-1.50121e-15
4.10544e-16
-1.54181e-15
4.22664e-16
-1.57472e-15
4.28426e-16
-1.60009e-15
4.27327e-16
-1.61811e-15
4.18963e-16
-1.62907e-15
4.03215e-16
-1.63342e-15
3.80162e-16
-1.63137e-15
3.50281e-16
-1.62307e-15
3.14091e-16
-1.60875e-15
2.72295e-16
-1.58871e-15
2.25661e-16
-1.56318e-15
1.75118e-16
-1.53247e-15
1.21495e-16
-1.49682e-15
6.58342e-17
-1.45649e-15
9.06622e-18
-1.41174e-15
-4.78014e-17
-1.36281e-15
-1.03958e-16
-1.30993e-15
-1.58539e-16
-1.25333e-15
-2.10915e-16
-1.19318e-15
-2.60395e-16
-1.12971e-15
-3.06522e-16
-1.06311e-15
-3.48789e-16
-9.93572e-16
-3.86869e-16
-9.21296e-16
-4.20373e-16
-8.46477e-16
-4.4905e-16
-7.69499e-16
-4.72578e-16
-6.90937e-16
-4.90683e-16
-6.11293e-16
-5.02995e-16
-5.30738e-16
-5.09193e-16
-4.49739e-16
-5.08513e-16
-3.69563e-16
-5.00233e-16
-2.92126e-16
-4.8306e-16
-2.18225e-16
-4.55064e-16
-1.51611e-16
-4.16102e-16
-9.09438e-17
-3.58887e-16
-4.60593e-17
-2.8665e-16
-1.51954e-17
-1.90409e-16
-7.93217e-17
-1.48295e-17
4.38078e-17
-5.16436e-17
9.35828e-17
-1.06042e-16
1.35214e-16
-1.73924e-16
1.62868e-16
-2.52244e-16
1.82487e-16
-3.37745e-16
1.97797e-16
-4.27342e-16
2.11829e-16
-5.18641e-16
2.26589e-16
-6.0981e-16
2.43263e-16
-6.99333e-16
2.62291e-16
-7.85858e-16
2.83628e-16
-8.68256e-16
3.06854e-16
-9.45592e-16
3.31322e-16
-1.01718e-15
3.56121e-16
-1.08249e-15
3.8022e-16
-1.14113e-15
4.02386e-16
-1.19279e-15
4.21551e-16
-1.23731e-15
4.36739e-16
-1.27464e-15
4.47196e-16
-1.30503e-15
4.52408e-16
-1.32858e-15
4.51428e-16
-1.34548e-15
4.43725e-16
-1.35599e-15
4.29079e-16
-1.3605e-15
4.0736e-16
-1.35934e-15
3.7879e-16
-1.35286e-15
3.43645e-16
-1.34128e-15
3.02516e-16
-1.32492e-15
2.55994e-16
-1.30403e-15
2.04977e-16
-1.2789e-15
1.50265e-16
-1.2498e-15
9.28469e-17
-1.21707e-15
3.35876e-17
-1.18091e-15
-2.64393e-17
-1.14163e-15
-8.64119e-17
-1.09939e-15
-1.45373e-16
-1.05449e-15
-2.0266e-16
-1.00701e-15
-2.57489e-16
-9.57199e-16
-3.09374e-16
-9.05115e-16
-3.57706e-16
-8.50961e-16
-4.02138e-16
-7.94809e-16
-4.42185e-16
-7.36799e-16
-4.77577e-16
-6.76977e-16
-5.07917e-16
-6.15654e-16
-5.32969e-16
-5.53236e-16
-5.52239e-16
-4.90165e-16
-5.65387e-16
-4.26323e-16
-5.72066e-16
-3.62084e-16
-5.71393e-16
-2.98351e-16
-5.62431e-16
-2.36431e-16
-5.43733e-16
-1.78217e-16
-5.1367e-16
-1.22839e-16
-4.68003e-16
-7.6783e-17
-4.09006e-16
-3.62205e-17
-3.25544e-16
-1.01547e-17
-2.17842e-16
-8.95809e-17
-1.25335e-17
5.62534e-17
-4.33218e-17
1.24851e-16
-8.78032e-17
1.80662e-16
-1.42839e-16
2.18653e-16
-2.06256e-16
2.45857e-16
-2.75375e-16
2.66345e-16
-3.47607e-16
2.83414e-16
-4.20947e-16
2.99338e-16
-4.93895e-16
3.15608e-16
-5.65157e-16
3.32879e-16
-6.33574e-16
3.51295e-16
-6.98126e-16
3.70633e-16
-7.58036e-16
3.90435e-16
-8.1268e-16
4.09984e-16
-8.61677e-16
4.28433e-16
-9.04651e-16
4.4462e-16
-9.41449e-16
4.57608e-16
-9.71937e-16
4.66558e-16
-9.96223e-16
4.70823e-16
-1.01446e-15
4.70091e-16
-1.02692e-15
4.63357e-16
-1.03374e-15
4.50149e-16
-1.03544e-15
4.3041e-16
-1.03236e-15
4.04053e-16
-1.02499e-15
3.71226e-16
-1.01357e-15
3.3219e-16
-9.9854e-16
2.87486e-16
-9.80089e-16
2.37722e-16
-9.58664e-16
1.83737e-16
-9.34397e-16
1.26375e-16
-9.07769e-16
6.65951e-17
-8.789e-16
5.28969e-18
-8.48238e-16
-5.65463e-17
-8.15836e-16
-1.18099e-16
-7.82085e-16
-1.78443e-16
-7.4698e-16
-2.36949e-16
-7.10837e-16
-2.92873e-16
-6.73577e-16
-3.45788e-16
-6.3543e-16
-3.95102e-16
-5.96286e-16
-4.40491e-16
-5.56335e-16
-4.81438e-16
-5.15421e-16
-5.17704e-16
-4.73677e-16
-5.48857e-16
-4.31055e-16
-5.74666e-16
-3.87961e-16
-5.94573e-16
-3.44541e-16
-6.08112e-16
-3.00748e-16
-6.15009e-16
-2.56394e-16
-6.14342e-16
-2.12313e-16
-6.04997e-16
-1.69648e-16
-5.85456e-16
-1.28232e-16
-5.53182e-16
-9.09604e-17
-5.08011e-16
-5.464e-17
-4.4084e-16
-2.89349e-17
-3.54336e-16
-1.04657e-17
-2.3701e-16
-1.00069e-16
-1.02812e-17
6.67082e-17
-3.29607e-17
1.48082e-16
-6.57009e-17
2.1392e-16
-1.05954e-16
2.59561e-16
-1.52017e-16
2.92014e-16
-2.02048e-16
3.16047e-16
-2.54066e-16
3.35002e-16
-3.06518e-16
3.51407e-16
-3.58258e-16
3.66941e-16
-4.08292e-16
3.82442e-16
-4.55638e-16
3.98091e-16
-4.99486e-16
4.13871e-16
-5.39115e-16
4.29445e-16
-5.74092e-16
4.44365e-16
-6.04039e-16
4.57835e-16
-6.28733e-16
4.68764e-16
-6.48104e-16
4.76472e-16
-6.62733e-16
4.80669e-16
-6.72384e-16
4.80031e-16
-6.76668e-16
4.73929e-16
-6.76041e-16
4.62376e-16
-6.71399e-16
4.45155e-16
-6.63007e-16
4.21758e-16
-6.51494e-16
3.92294e-16
-6.37083e-16
3.5667e-16
-6.2038e-16
3.1537e-16
-6.01524e-16
2.68642e-16
-5.81117e-16
2.17326e-16
-5.59223e-16
1.61985e-16
-5.36428e-16
1.03716e-16
-5.12785e-16
4.3197e-17
-4.88849e-16
-1.84007e-17
-4.64631e-16
-8.04352e-17
-4.40593e-16
-1.41775e-16
-4.16679e-16
-2.01921e-16
-3.93257e-16
-2.59912e-16
-3.70174e-16
-3.15456e-16
-3.4768e-16
-3.6779e-16
-3.25504e-16
-4.16769e-16
-3.03828e-16
-4.61704e-16
-2.82366e-16
-5.02471e-16
-2.6122e-16
-5.38434e-16
-2.4007e-16
-5.6946e-16
-2.19147e-16
-5.94973e-16
-1.98268e-16
-6.14934e-16
-1.7723e-16
-6.28732e-16
-1.55869e-16
-6.35691e-16
-1.3421e-16
-6.34819e-16
-1.12651e-16
-6.25282e-16
-9.1534e-17
-6.05496e-16
-7.1652e-17
-5.73748e-16
-5.06786e-17
-5.24855e-16
-3.39584e-17
-4.61346e-16
-1.61322e-17
-3.70366e-16
-4.22171e-18
-2.49476e-16
-1.04361e-16
-7.29233e-18
7.39722e-17
-2.12367e-17
1.614e-16
-4.05309e-17
2.33281e-16
-6.40535e-17
2.82879e-16
-9.0679e-17