/*--------------------------------*- C++ -*----------------------------------*\
| =========                 |                                                 |
| \\      /  F ield         | OpenFOAM: The Open Source CFD Toolbox           |
|  \\    /   O peration     | Version:  5.0                                   |
|   \\  /    A nd           | Web:      www.OpenFOAM.org                      |
|    \\/     M anipulation  |                                                 |
\*---------------------------------------------------------------------------*/
FoamFile
{
    version     2.0;
    format      ascii;
    class       surfaceScalarField;
    location    "0.6";
    object      phi;
}
// * * * * * * * * * * * * * * * * * * * * * * * * * * * * * * * * * * * * * //

dimensions      [0 3 -1 0 0 0 0];

internalField   nonuniform List<scalar> 
760
(
1.21378e-10
1.48969e-13
1.21205e-10
1.73545e-13
1.21164e-10
4.02097e-14
1.21151e-10
1.38439e-14
1.21149e-10
2.02079e-15
1.21148e-10
7.01055e-16
1.21148e-10
-7.68423e-17
1.21148e-10
7.72377e-17
1.21148e-10
-1.08523e-16
1.21148e-10
2.30577e-17
1.21148e-10
1.85723e-18
1.21148e-10
5.80764e-17
1.21148e-10
-6.18847e-18
1.21148e-10
1.7712e-17
1.21148e-10
-9.76133e-18
1.21148e-10
8.20513e-18
1.21148e-10
-5.66449e-18
1.21148e-10
7.20598e-18
1.21148e-10
2.21982e-18
9.51663e-18
1.20638e-10
2.96079e-13
1.20471e-10
3.41266e-13
1.20433e-10
7.79365e-14
1.20419e-10
2.78909e-14
1.20417e-10
3.44989e-15
1.20416e-10
1.74127e-15
1.20417e-10
-4.21724e-16
1.20416e-10
3.49135e-16
1.20417e-10
-3.5932e-16
1.20417e-10
1.497e-16
1.20417e-10
-7.29734e-17
1.20417e-10
1.73003e-16
1.20417e-10
-5.43189e-17
1.20417e-10
6.67658e-17
1.20417e-10
-4.31727e-17
1.20417e-10
3.41707e-17
1.20417e-10
-2.48843e-17
1.20417e-10
2.58444e-17
1.20417e-10
-5.18726e-18
2.56557e-17
1.19165e-10
4.34653e-13
1.19008e-10
4.98701e-13
1.18973e-10
1.1288e-13
1.1896e-10
4.09238e-14
1.18959e-10
4.70875e-15
1.18958e-10
2.72522e-15
1.18958e-10
-7.64115e-16
1.18958e-10
6.1563e-16
1.18958e-10
-6.05452e-16
1.18958e-10
2.72796e-16
1.18958e-10
-1.46047e-16
1.18958e-10
2.86274e-16
1.18958e-10
-1.02232e-16
1.18958e-10
1.14879e-16
1.18958e-10
-7.60089e-17
1.18958e-10
5.95162e-17
1.18958e-10
-4.3951e-17
1.18958e-10
4.39359e-17
1.18958e-10
-1.10791e-17
4.29314e-17
1.16966e-10
5.60667e-13
1.16824e-10
6.41013e-13
1.16793e-10
1.43756e-13
1.16782e-10
5.24909e-14
1.16781e-10
5.72145e-15
1.1678e-10
3.63027e-15
1.1678e-10
-1.10414e-15
1.1678e-10
8.75032e-16
1.1678e-10
-8.43903e-16
1.1678e-10
3.92633e-16
1.1678e-10
-2.18536e-16
1.1678e-10
3.96823e-16
1.1678e-10
-1.49602e-16
1.1678e-10
1.61378e-16
1.1678e-10
-1.08088e-16
1.1678e-10
8.43563e-17
1.1678e-10
-6.26226e-17
1.1678e-10
6.17576e-17
1.1678e-10
-1.61303e-17
6.03546e-17
1.14054e-10
6.70427e-13
1.13932e-10
7.63818e-13
1.13906e-10
1.69458e-13
1.13896e-10
6.21972e-14
1.13895e-10
6.42817e-15
1.13895e-10
4.43453e-15
1.13895e-10
-1.43933e-15
1.13895e-10
1.12488e-15
1.13895e-10
-1.07159e-15
1.13895e-10
5.08162e-16
1.13895e-10
-2.90049e-16
1.13895e-10
5.02738e-16
1.13895e-10
-1.96325e-16
1.13895e-10
2.05851e-16
1.13895e-10
-1.39083e-16
1.13895e-10
1.08246e-16
1.13895e-10
-8.07333e-17
1.13895e-10
7.88241e-17
1.13895e-10
-2.00393e-17
7.81352e-17
1.10446e-10
7.60612e-13
1.10347e-10
8.63239e-13
1.10327e-10
1.89067e-13
1.10319e-10
6.97203e-14
1.10319e-10
6.78662e-15
1.10318e-10
5.12012e-15
1.10319e-10
-1.7661e-15
1.10318e-10
1.36235e-15
1.10319e-10
-1.28415e-15
1.10319e-10
6.19119e-16
1.10319e-10
-3.61096e-16
1.10319e-10
6.01421e-16
1.10319e-10
-2.41964e-16
1.10319e-10
2.47593e-16
1.10319e-10
-1.68637e-16
1.10319e-10
1.30908e-16
1.10319e-10
-9.81567e-17
1.10319e-10
9.49755e-17
1.10319e-10
-2.34044e-17
9.5365e-17
1.06162e-10
8.2841e-13
1.06089e-10
9.36071e-13
1.06076e-10
2.01915e-13
1.06071e-10
7.48281e-14
1.06071e-10
6.77424e-15
1.06071e-10
5.67322e-15
1.06071e-10
-2.07983e-15
1.06071e-10
1.5843e-15
1.06071e-10
-1.47779e-15
1.06071e-10
7.24496e-16
1.06071e-10
-4.31179e-16
1.06071e-10
6.90627e-16
1.06071e-10
-2.86083e-16
1.06071e-10
2.86089e-16
1.06071e-10
-1.96401e-16
1.06071e-10
1.52072e-16
1.06071e-10
-1.14531e-16
1.06071e-10
1.09979e-16
1.06071e-10
-2.66073e-17
1.11375e-16
1.01228e-10
8.71603e-13
1.01184e-10
9.79897e-13
1.01178e-10
2.07608e-13
1.01176e-10
7.73902e-14
1.01176e-10
6.39126e-15
1.01176e-10
6.08491e-15
1.01176e-10
-2.3744e-15
1.01176e-10
1.78712e-15
1.01176e-10
-1.64835e-15
1.01176e-10
8.23235e-16
1.01176e-10
-4.99657e-16
1.01176e-10
7.67887e-16
1.01176e-10
-3.28108e-16
1.01176e-10
3.20565e-16
1.01176e-10
-2.21745e-16
1.01176e-10
1.71371e-16
1.01176e-10
-1.29605e-16
1.01176e-10
1.23396e-16
1.01176e-10
-2.99268e-17
1.25658e-16
9.56714e-11
8.88681e-13
9.5658e-11
9.93216e-13
9.56596e-11
2.06061e-13
9.56596e-11
7.73843e-14
9.56603e-11
5.66171e-15
9.56601e-11
6.35029e-15
9.56603e-11
-2.64211e-15
9.56602e-11
1.96649e-15
9.56603e-11
-1.79167e-15
9.56602e-11
9.13517e-16
9.56603e-11
-5.65305e-16
9.56602e-11
8.30915e-16
9.56602e-11
-3.67005e-16
9.56602e-11
3.50316e-16
9.56602e-11
-2.44262e-16
9.56602e-11
1.8828e-16
9.56602e-11
-1.42982e-16
9.56602e-11
1.34864e-16
9.56602e-11
-3.37181e-17
1.37497e-16
8.95252e-11
8.78954e-13
8.95428e-11
9.75578e-13
8.95514e-11
1.97516e-13
8.95539e-11
7.49016e-14
8.95549e-11
4.63379e-15
8.95548e-11
6.46845e-15
8.9555e-11
-2.8737e-15
8.95549e-11
2.11731e-15
8.9555e-11
-1.90309e-15
8.95549e-11
9.93071e-16
8.95549e-11
-6.26215e-16
8.95549e-11
8.77346e-16
8.95549e-11
-4.01829e-16
8.95549e-11
3.74414e-16
8.95549e-11
-2.63154e-16
8.95549e-11
2.02301e-16
8.95549e-11
-1.54308e-16
8.95549e-11
1.44017e-16
8.95549e-11
-3.80633e-17
1.46376e-16
8.28249e-11
8.42667e-13
8.28727e-11
9.27713e-13
8.28877e-11
1.82557e-13
8.28924e-11
7.01463e-14
8.28937e-11
3.37873e-15
8.28937e-11
6.44163e-15
8.28939e-11
-3.05766e-15
8.28938e-11
2.23343e-15
8.28939e-11
-1.97771e-15
8.28938e-11
1.05866e-15
8.28938e-11
-6.79992e-16
8.28938e-11
9.05002e-16
8.28938e-11
-4.30934e-16
8.28938e-11
3.91866e-16
8.28938e-11
-2.77687e-16
8.28938e-11
2.12875e-16
8.28938e-11
-1.63008e-16
8.28938e-11
1.50438e-16
8.28938e-11
-4.31405e-17
1.51617e-16
7.56092e-11
7.81125e-13
7.56852e-11
8.51653e-13
7.57057e-11
1.6211e-13
7.57124e-11
6.343e-14
7.57138e-11
1.98885e-15
7.57139e-11
6.27398e-15
7.57141e-11
-3.1809e-15
7.5714e-11
2.30717e-15
7.5714e-11
-2.00997e-15
7.5714e-11
1.10624e-15
7.5714e-11
-7.23159e-16
7.5714e-11
9.1155e-16
7.5714e-11
-4.52516e-16
7.5714e-11
4.0148e-16
7.5714e-11
-2.86789e-16
7.5714e-11
2.19265e-16
7.5714e-11
-1.6858e-16
7.5714e-11
1.53566e-16
7.5714e-11
-4.86125e-17
1.52765e-16
6.79199e-11
6.96818e-13
6.80207e-11
7.50862e-13
6.80454e-11
1.3743e-13
6.80536e-11
5.51629e-14
6.80551e-11
5.74625e-16
6.80554e-11
5.96976e-15
6.80554e-11
-3.22792e-15
6.80554e-11
2.32921e-15
6.80554e-11
-1.99387e-15
6.80553e-11
1.13038e-15
6.80554e-11
-7.51606e-16
6.80554e-11
8.94651e-16
6.80554e-11
-4.64136e-16
6.80554e-11
4.01805e-16
6.80554e-11
-2.89341e-16
6.80554e-11
2.20528e-16
6.80554e-11
-1.70243e-16
6.80554e-11
1.52984e-16
6.80554e-11
-5.42411e-17
1.49324e-16
5.98017e-11
5.93565e-13
5.99222e-11
6.30361e-13
5.99495e-11
1.10082e-13
5.99588e-11
4.5837e-14
5.99601e-11
-7.39676e-16
5.99606e-11
5.53178e-15
5.99605e-11
-3.18121e-15
5.99606e-11
2.28815e-15
5.99605e-11
-1.92235e-15
5.99605e-11
1.12459e-15
5.99605e-11
-7.59908e-16
5.99606e-11
8.51973e-16
5.99606e-11
-4.63035e-16
5.99606e-11
3.91284e-16
5.99606e-11
-2.83924e-16
5.99606e-11
2.15774e-16
5.99606e-11
-1.67224e-16
5.99606e-11
1.48041e-16
5.99606e-11
-5.91991e-17
1.41071e-16
5.13015e-11
4.76653e-13
5.1435e-11
4.96858e-13
5.14631e-11
8.1891e-14
5.1473e-11
3.60057e-14
5.14741e-11
-1.8209e-15
5.14746e-11
4.95895e-15
5.14745e-11
-3.02035e-15
5.14746e-11
2.1701e-15
5.14745e-11
-1.7872e-15
5.14745e-11
1.08043e-15
5.14745e-11
-7.41281e-16
5.14746e-11
7.81007e-16
5.14745e-11
-4.45523e-16
5.14746e-11
3.67901e-16
5.14745e-11
-2.68816e-16
5.14746e-11
2.037e-16
5.14745e-11
-1.58285e-16
5.14746e-11
1.3816e-16
5.14746e-11
-6.25955e-17
1.27645e-16
4.24686e-11
3.52994e-13
4.26066e-11
3.58854e-13
4.26336e-11
5.48854e-14
4.26433e-11
2.62553e-14
4.2644e-11
-2.53288e-15
4.26447e-11
4.24368e-15
4.26444e-11
-2.72248e-15
4.26447e-11
1.95793e-15
4.26444e-11
-1.57903e-15
4.26445e-11
9.87678e-16
4.26445e-11
-6.87476e-16
4.26446e-11
6.7914e-16
4.26445e-11
-4.07451e-16
4.26446e-11
3.29124e-16
4.26446e-11
-2.42026e-16
4.26446e-11
1.82897e-16
4.26446e-11
-1.42359e-16
4.26446e-11
1.22508e-16
4.26446e-11
-6.32314e-17
1.08731e-16
3.33542e-11
2.31287e-13
3.34862e-11
2.26762e-13
3.35099e-11
3.12122e-14
3.3519e-11
1.7175e-14
3.35192e-11
-2.74284e-15
3.35201e-11
3.36939e-15
3.35196e-11
-2.26139e-15
3.35199e-11
1.63102e-15
3.35197e-11
-1.2872e-15
3.35198e-11
8.3365e-16
3.35197e-11
-5.88106e-16
3.35198e-11
5.44019e-16
3.35198e-11
-3.43549e-16
3.35198e-11
2.71979e-16
3.35198e-11
-2.01075e-16
3.35198e-11
1.5159e-16
3.35198e-11
-1.18072e-16
3.35198e-11
1.00294e-16
3.35198e-11
-5.9002e-17
8.452e-17
2.40111e-11
1.22202e-13
2.41248e-11
1.13017e-13
2.4143e-11
1.30509e-14
2.41509e-11
9.31914e-15
2.41504e-11
-2.3274e-15
2.41515e-11
2.30723e-15
2.41508e-11
-1.60722e-15
2.41513e-11
1.1644e-15
2.41509e-11
-8.99102e-16
2.41512e-11
6.02729e-16
2.4151e-11
-4.30637e-16
2.41512e-11
3.73085e-16
2.41511e-11
-2.47797e-16
2.41512e-11
1.92753e-16
2.41511e-11
-1.43107e-16
2.41511e-11
1.07736e-16
2.41511e-11
-8.38087e-17
2.41511e-11
7.03997e-17
2.41511e-11
-4.70792e-17
5.56056e-17
1.44936e-11
3.85805e-14
1.45744e-11
3.21944e-14
1.45849e-11
2.49759e-15
1.45911e-11
3.14989e-15
1.459e-11
-1.17735e-15
1.45913e-11
1.00955e-15
1.45904e-11
-7.23158e-16
1.4591e-11
5.26385e-16
1.45905e-11
-3.98688e-16
1.45908e-11
2.75517e-16
1.45906e-11
-1.9891e-16
1.45908e-11
1.62741e-16
1.45907e-11
-1.12866e-16
1.45908e-11
8.6569e-17
1.45907e-11
-6.44968e-17
1.45908e-11
4.85687e-17
1.45907e-11
-3.76486e-17
1.45908e-11
3.141e-17
1.45907e-11
-2.34233e-17
2.30985e-17
4.85454e-12
4.88673e-12
4.88923e-12
4.89238e-12
4.8912e-12
4.89221e-12
4.89149e-12
4.89202e-12
4.89162e-12
4.89189e-12
4.89169e-12
4.89186e-12
4.89174e-12
4.89183e-12
4.89177e-12
4.89182e-12
4.89178e-12
4.89181e-12
4.89179e-12
)
;

boundaryField
{
    top
    {
        type            calculated;
        value           uniform 0;
    }
    bottom
    {
        type            symmetryPlane;
        value           uniform 0;
    }
    inlet
    {
        type            calculated;
        value           nonuniform List<scalar> 
20
(
-1.21527e-10
-1.20785e-10
-1.19304e-10
-1.17092e-10
-1.14164e-10
-1.10536e-10
-1.0623e-10
-1.01271e-10
-9.56884e-11
-8.95155e-11
-8.27886e-11
-7.55476e-11
-6.78356e-11
-5.96984e-11
-5.11845e-11
-4.23449e-11
-3.32324e-11
-2.3902e-11
-1.44099e-11
-4.81596e-12
)
;
    }
    outlet
    {
        type            calculated;
        value           nonuniform List<scalar> 
20
(
1.21148e-10
1.20417e-10
1.18958e-10
1.1678e-10
1.13895e-10
1.10319e-10
1.06071e-10
1.01176e-10
9.56602e-11
8.95549e-11
8.28938e-11
7.5714e-11
6.80554e-11
5.99606e-11
5.14746e-11
4.26446e-11
3.35198e-11
2.41512e-11
1.45908e-11
4.89181e-12
)
;
    }
    frontAndBack
    {
        type            empty;
        value           nonuniform 0();
    }
}


// ************************************************************************* //
