/*--------------------------------*- C++ -*----------------------------------*\
| =========                 |                                                 |
| \\      /  F ield         | OpenFOAM: The Open Source CFD Toolbox           |
|  \\    /   O peration     | Version:  5.0                                   |
|   \\  /    A nd           | Web:      www.OpenFOAM.org                      |
|    \\/     M anipulation  |                                                 |
\*---------------------------------------------------------------------------*/
FoamFile
{
    version     2.0;
    format      ascii;
    class       volScalarField;
    location    "0.6";
    object      shearRate;
}
// * * * * * * * * * * * * * * * * * * * * * * * * * * * * * * * * * * * * * //

dimensions      [0 0 -1 0 0 0 0];

internalField   nonuniform List<scalar> 
50
(
2.01713
2.01699
2.01751
2.01693
2.03381
2.0464
3.80647
3.9014
3.93033
3.98238
6.0514
6.05095
6.05252
6.05003
6.0808
6.06185
7.70968
7.83466
7.87123
7.9325
10.0857
10.0849
10.0875
10.082
10.1044
10.0743
9.83521
9.84557
9.85525
9.86285
14.12
14.1187
14.1226
14.1135
14.1292
14.0905
13.8408
13.799
13.7998
13.7888
18.1543
18.1524
18.158
18.1446
18.1613
18.1176
17.8304
17.744
17.742
17.7173
)
;

boundaryField
{
    top
    {
        type            zeroGradient;
    }
    bottom
    {
        type            symmetryPlane;
    }
    inlet
    {
        type            zeroGradient;
    }
    outlet
    {
        type            zeroGradient;
    }
    frontAndBack
    {
        type            empty;
    }
}


// ************************************************************************* //
