/*--------------------------------*- C++ -*----------------------------------*\
| =========                 |                                                 |
| \\      /  F ield         | OpenFOAM: The Open Source CFD Toolbox           |
|  \\    /   O peration     | Version:  5.0                                   |
|   \\  /    A nd           | Web:      www.OpenFOAM.org                      |
|    \\/     M anipulation  |                                                 |
\*---------------------------------------------------------------------------*/
FoamFile
{
    version     2.0;
    format      ascii;
    class       volVectorField;
    location    "0.6";
    object      U;
}
// * * * * * * * * * * * * * * * * * * * * * * * * * * * * * * * * * * * * * //

dimensions      [0 1 -1 0 0 0 0];

internalField   nonuniform List<vector> 
50
(
(1.00857 6.05637e-07 9.6866e-28)
(1.00848 -1.40966e-06 -3.2596e-23)
(1.00876 8.75834e-07 -3.263e-23)
(1.00814 -2.07868e-05 -3.2566e-23)
(1.01019 -6.76226e-05 -4.75429e-25)
(1.00739 -0.000999383 6.64654e-23)
(1.06017 0.00117023 8.36013e-23)
(1.06249 -0.000127802 -4.06199e-23)
(1.06397 2.07264e-05 -4.6195e-25)
(1.06563 -0.00506588 2.01634e-23)
(0.927883 2.02898e-06 -7.17375e-37)
(0.927799 -4.58769e-06 2.82247e-23)
(0.92806 4.31328e-06 4.1121e-27)
(0.927465 -5.7876e-05 -2.84379e-23)
(0.928836 -0.00014016 -2.82116e-23)
(0.926309 -0.00420675 1.64415e-23)
(0.908368 -0.00536529 5.31312e-23)
(0.906436 -0.000752773 7.21045e-23)
(0.90676 -0.000125602 -4.69666e-25)
(0.906393 0.000741985 -9.56696e-23)
(0.766513 3.20459e-06 -2.76042e-23)
(0.76644 -7.00779e-06 -7.30271e-26)
(0.76666 9.14304e-06 2.82326e-23)
(0.76614 -6.77927e-05 -5.63687e-23)
(0.766958 -6.59208e-05 -5.63203e-23)
(0.764953 -0.00252138 2.65177e-23)
(0.751836 -0.00292382 3.07965e-23)
(0.749104 -0.000459421 2.97411e-23)
(0.74912 -0.00010657 1.604e-25)
(0.748367 4.70435e-05 -3.19462e-23)
(0.524457 2.92641e-06 5.5296e-23)
(0.524404 -6.21259e-06 2.81425e-23)
(0.524561 9.64024e-06 -5.64635e-23)
(0.524183 -4.59972e-05 -2.79451e-23)
(0.52466 8.18056e-06 5.72585e-23)
(0.523364 -0.00077443 6.58587e-23)
(0.514998 -0.000899898 3.89889e-23)
(0.512615 -0.000159697 1.8103e-24)
(0.51255 -5.36634e-05 -2.75844e-23)
(0.51188 -0.000159736 -2.79958e-24)
(0.201715 1.09188e-06 3.97192e-23)
(0.201692 -2.28524e-06 2.01063e-23)
(0.201758 3.75752e-06 -6.03578e-23)
(0.2016 -1.46981e-05 -2.00913e-23)
(0.20179 1.01562e-05 4.02453e-23)
(0.20134 -0.000142915 3.81382e-23)
(0.198215 -0.000177965 1.98308e-23)
(0.197143 -3.29747e-05 -4.14034e-25)
(0.197129 -1.37746e-05 0)
(0.196814 -5.55142e-05 0)
)
;

boundaryField
{
    top
    {
        type            fixedValue;
        value           uniform (0 0 0);
    }
    bottom
    {
        type            symmetryPlane;
    }
    inlet
    {
        type            pressureInletVelocity;
        value           nonuniform List<vector> 5((1.00856 0 0) (0.927875 0 0) (0.766505 0 0) (0.524449 0 0) (0.201709 0 0));
    }
    outlet
    {
        type            inletOutlet;
        inletValue      uniform (1 0 0);
        value           nonuniform List<vector> 5((1.06563 -0.00506588 2.01634e-23) (0.906393 0.000741985 -9.56696e-23) (0.748367 4.70435e-05 -3.19462e-23) (0.51188 -0.000159736 -2.79958e-24) (0.196814 -5.55142e-05 0));
    }
    frontAndBack
    {
        type            empty;
    }
}


// ************************************************************************* //
