/*--------------------------------*- C++ -*----------------------------------*\
| =========                 |                                                 |
| \\      /  F ield         | OpenFOAM: The Open Source CFD Toolbox           |
|  \\    /   O peration     | Version:  5.0                                   |
|   \\  /    A nd           | Web:      www.OpenFOAM.org                      |
|    \\/     M anipulation  |                                                 |
\*---------------------------------------------------------------------------*/
FoamFile
{
    version     2.0;
    format      ascii;
    class       volVectorField;
    location    "0.6";
    object      U;
}
// * * * * * * * * * * * * * * * * * * * * * * * * * * * * * * * * * * * * * //

dimensions      [0 1 -1 0 0 0 0];

internalField   nonuniform List<vector> 
400
(
(2.43071e-06 1.49495e-10 -5.65056e-32)
(2.42411e-06 1.73996e-10 -3.47077e-31)
(2.42392e-06 4.0446e-11 -2.47976e-31)
(2.42276e-06 1.40156e-11 0)
(2.42319e-06 1.99006e-12 0)
(2.42281e-06 7.45752e-13 2.56725e-31)
(2.42307e-06 -1.0501e-13 2.55499e-31)
(2.42288e-06 1.00408e-13 -2.54791e-31)
(2.42302e-06 -1.23829e-13 -2.54791e-31)
(2.42292e-06 3.69603e-14 0)
(2.42299e-06 -5.23737e-15 9.81197e-34)
(2.42293e-06 6.24311e-14 0)
(2.42298e-06 -1.37693e-14 0)
(2.42294e-06 2.05628e-14 0)
(2.42297e-06 -1.34613e-14 0)
(2.42295e-06 9.71601e-15 2.58186e-31)
(2.42296e-06 -7.76693e-15 -1.75687e-34)
(2.42295e-06 8.78893e-15 1.11891e-45)
(2.42296e-06 6.48555e-16 -2.19664e-53)
(2.42296e-06 1.05678e-14 -2.59365e-31)
(2.41585e-06 4.47619e-10 -1.33347e-44)
(2.40943e-06 5.18287e-10 -1.29305e-31)
(2.40927e-06 1.19252e-10 3.03253e-32)
(2.40813e-06 4.20472e-11 -2.15883e-31)
(2.40856e-06 5.57127e-12 0)
(2.40818e-06 2.43772e-12 0)
(2.40844e-06 -4.80705e-13 -5.00402e-33)
(2.40825e-06 4.13869e-13 4.42811e-31)
(2.40839e-06 -4.60225e-13 2.7786e-33)
(2.40829e-06 1.65325e-13 -4.39597e-31)
(2.40837e-06 -6.73084e-14 -2.20336e-31)
(2.40831e-06 2.28987e-13 -2.21059e-31)
(2.40835e-06 -5.56776e-14 0)
(2.40832e-06 8.31525e-14 0)
(2.40834e-06 -5.07778e-14 -2.20643e-31)
(2.40832e-06 4.14894e-14 -6.60076e-34)
(2.40834e-06 -2.91228e-14 2.19902e-31)
(2.40833e-06 3.2092e-14 2.20117e-31)
(2.40833e-06 -2.42936e-15 -1.70534e-34)
(2.40833e-06 3.39564e-14 -2.21111e-31)
(2.38622e-06 7.35668e-10 -6.28349e-32)
(2.38014e-06 8.46378e-10 1.10963e-30)
(2.38005e-06 1.92679e-10 2.25024e-31)
(2.37895e-06 6.93428e-11 -2.17968e-31)
(2.37938e-06 8.32811e-12 -2.21635e-31)
(2.37901e-06 4.45314e-12 1.321e-33)
(2.37927e-06 -1.1525e-12 -5.42145e-34)
(2.37908e-06 9.43129e-13 2.20187e-31)
(2.37922e-06 -9.48937e-13 1.41687e-34)
(2.37912e-06 4.11977e-13 -2.19703e-31)
(2.37919e-06 -2.09334e-13 2.20336e-31)
(2.37913e-06 4.52237e-13 3.98761e-35)
(2.37918e-06 -1.52709e-13 -2.20242e-31)
(2.37914e-06 1.779e-13 -2.19985e-31)
(2.37917e-06 -1.16891e-13 4.40349e-31)
(2.37915e-06 9.17116e-14 2.2014e-31)
(2.37916e-06 -6.76257e-14 -4.40337e-31)
(2.37915e-06 6.87235e-14 5.93899e-35)
(2.37916e-06 -1.5801e-14 3.81792e-35)
(2.37916e-06 6.7726e-14 -6.30614e-35)
(2.34199e-06 1.00243e-09 -6.81591e-31)
(2.33641e-06 1.14835e-09 1.70559e-30)
(2.33643e-06 2.58973e-10 -4.49433e-31)
(2.33539e-06 9.42337e-11 -2.97939e-31)
(2.33582e-06 1.0578e-11 2.21619e-31)
(2.33545e-06 6.39408e-12 2.23219e-31)
(2.33571e-06 -1.8652e-12 2.18394e-31)
(2.33552e-06 1.49117e-12 1.75624e-33)
(2.33566e-06 -1.45166e-12 -2.20565e-31)
(2.33556e-06 6.6449e-13 2.20616e-31)
(2.33563e-06 -3.63823e-13 2.18817e-31)
(2.33558e-06 6.84259e-13 -4.40334e-34)
(2.33562e-06 -2.50236e-13 -5.24328e-34)
(2.33559e-06 2.76748e-13 2.91011e-34)
(2.33561e-06 -1.8382e-13 -6.59228e-34)
(2.33559e-06 1.43551e-13 -1.46778e-34)
(2.3356e-06 -1.05946e-13 2.20069e-31)
(2.3356e-06 1.0552e-13 -2.19897e-31)
(2.3356e-06 -2.73466e-14 -2.1041e-34)
(2.3356e-06 1.02416e-13 4.42199e-31)
(2.28343e-06 1.23998e-09 2.1232e-30)
(2.27849e-06 1.41546e-09 -1.626e-30)
(2.27865e-06 3.1603e-10 -6.72961e-31)
(2.27767e-06 1.15704e-10 -1.22433e-31)
(2.27811e-06 1.23099e-11 4.35702e-31)
(2.27775e-06 8.1236e-12 2.19026e-31)
(2.27801e-06 -2.54972e-12 0)
(2.27782e-06 2.00749e-12 -2.0498e-33)
(2.27796e-06 -1.92333e-12 0)
(2.27785e-06 9.05046e-13 4.39597e-31)
(2.27793e-06 -5.09735e-13 -8.96788e-34)
(2.27787e-06 9.0296e-13 -5.06511e-34)
(2.27791e-06 -3.47714e-13 2.20243e-31)
(2.27788e-06 3.68639e-13 -1.09743e-45)
(2.27791e-06 -2.4823e-13 2.52831e-34)
(2.27789e-06 1.93752e-13 -2.19929e-31)
(2.2779e-06 -1.44389e-13 2.20162e-31)
(2.27789e-06 1.41266e-13 2.19992e-31)
(2.2779e-06 -3.68284e-14 -1.16235e-34)
(2.2779e-06 1.39211e-13 8.35138e-35)
(2.21087e-06 1.4414e-09 -1.25522e-31)
(2.20671e-06 1.63943e-09 -2.36511e-30)
(2.20703e-06 3.61747e-10 4.3585e-31)
(2.20613e-06 1.33066e-10 5.38259e-32)
(2.20658e-06 1.33948e-11 -2.21577e-31)
(2.20622e-06 9.61802e-12 -5.55211e-33)
(2.20648e-06 -3.21094e-12 6.88584e-33)
(2.20629e-06 2.49475e-12 -4.78004e-33)
(2.20643e-06 -2.36475e-12 0)
(2.20633e-06 1.12916e-12 2.18732e-31)
(2.2064e-06 -6.51594e-13 -2.17174e-31)
(2.20635e-06 1.10848e-12 -2.19364e-31)
(2.20639e-06 -4.38161e-13 2.20837e-31)
(2.20636e-06 4.55063e-13 -2.19663e-31)
(2.20638e-06 -3.08462e-13 2.21061e-31)
(2.20636e-06 2.3928e-13 2.19926e-31)
(2.20638e-06 -1.7868e-13 -2.20231e-31)
(2.20637e-06 1.74223e-13 -2.73194e-34)
(2.20637e-06 -4.35349e-14 -2.20023e-31)
(2.20637e-06 1.73201e-13 -2.21042e-31)
(2.12474e-06 1.60061e-09 -8.34218e-45)
(2.12148e-06 1.81308e-09 1.19617e-30)
(2.12197e-06 3.94473e-10 -6.37423e-33)
(2.12117e-06 1.45785e-10 -1.16056e-31)
(2.12162e-06 1.37486e-11 1.11628e-32)
(2.12127e-06 1.0862e-11 -2.19032e-31)
(2.12153e-06 -3.85419e-12 -2.12735e-31)
(2.12134e-06 2.9552e-12 4.36242e-31)
(2.12148e-06 -2.77235e-12 2.22425e-31)
(2.12138e-06 1.34745e-12 -4.39598e-31)
(2.12145e-06 -7.93015e-13 2.24125e-31)
(2.1214e-06 1.29749e-12 2.20654e-31)
(2.12144e-06 -5.29733e-13 2.20582e-31)
(2.12141e-06 5.35449e-13 -2.20489e-31)
(2.12143e-06 -3.66106e-13 -4.40395e-31)
(2.12141e-06 2.84405e-13 6.60082e-31)
(2.12142e-06 -2.13879e-13 2.93515e-42)
(2.12142e-06 2.05706e-13 -2.20117e-31)
(2.12142e-06 -5.00877e-14 2.20282e-31)
(2.12142e-06 2.08164e-13 -2.07932e-34)
(2.02556e-06 1.71252e-09 1.34729e-30)
(2.02329e-06 1.9307e-09 8.51573e-31)
(2.02395e-06 4.13138e-10 -2.22705e-31)
(2.02325e-06 1.53492e-10 1.19394e-31)
(2.02371e-06 1.33474e-11 2.21525e-31)
(2.02337e-06 1.18292e-11 -2.11957e-31)
(2.02362e-06 -4.46475e-12 -2.25667e-31)
(2.02344e-06 3.38184e-12 2.29531e-31)
(2.02357e-06 -3.13864e-12 2.22736e-31)
(2.02348e-06 1.5507e-12 1.48475e-33)
(2.02355e-06 -9.31633e-13 2.15901e-31)
(2.02349e-06 1.46487e-12 2.20771e-31)
(2.02353e-06 -6.14769e-13 -2.21025e-31)
(2.0235e-06 6.08838e-13 -1.02999e-33)
(2.02352e-06 -4.19408e-13 2.1942e-31)
(2.02351e-06 3.23976e-13 2.20428e-31)
(2.02352e-06 -2.44316e-13 1.95543e-42)
(2.02351e-06 2.34184e-13 -2.19941e-31)
(2.02352e-06 -5.63643e-14 2.20296e-31)
(2.02352e-06 2.37445e-13 4.42083e-31)
(1.91391e-06 1.77332e-09 -1.4714e-30)
(1.91268e-06 1.98831e-09 -1.53828e-30)
(1.91353e-06 4.17244e-10 2.22078e-31)
(1.91293e-06 1.56031e-10 5.85466e-32)
(1.91339e-06 1.22167e-11 -2.21499e-31)
(1.91306e-06 1.25088e-11 -7.67402e-33)
(1.91331e-06 -5.03246e-12 2.15523e-31)
(1.91313e-06 3.76642e-12 -3.78738e-33)
(1.91326e-06 -3.45468e-12 -2.20561e-31)
(1.91316e-06 1.74203e-12 4.396e-31)
(1.91324e-06 -1.06702e-12 2.20335e-31)
(1.91318e-06 1.60671e-12 -9.28179e-34)
(1.91322e-06 -6.97415e-13 -4.40485e-31)
(1.91319e-06 6.73416e-13 -2.18882e-31)
(1.91321e-06 -4.67544e-13 4.4083e-31)
(1.9132e-06 3.61372e-13 2.199e-31)
(1.91321e-06 -2.73943e-13 -2.20116e-31)
(1.9132e-06 2.59298e-13 -4.40427e-31)
(1.91321e-06 -6.33539e-14 2.19981e-31)
(1.9132e-06 2.6507e-13 4.42398e-31)
(1.79045e-06 1.78077e-09 -1.54895e-30)
(1.79029e-06 1.98391e-09 -1.53399e-30)
(1.79131e-06 4.06945e-10 2.21439e-31)
(1.79082e-06 1.53468e-10 2.42755e-43)
(1.79128e-06 1.04292e-11 -2.39436e-31)
(1.79096e-06 1.28911e-11 -4.86381e-43)
(1.7912e-06 -5.53608e-12 -2.32932e-31)
(1.79102e-06 4.09959e-12 -4.23789e-33)
(1.79115e-06 -3.71196e-12 4.38347e-31)
(1.79106e-06 1.91252e-12 -2.1788e-31)
(1.79113e-06 -1.19413e-12 -2.18433e-31)
(1.79108e-06 1.71679e-12 2.19955e-31)
(1.79111e-06 -7.71072e-13 4.40985e-31)
(1.79109e-06 7.27861e-13 -2.20043e-31)
(1.79111e-06 -5.09526e-13 -4.40394e-31)
(1.79109e-06 3.91922e-13 2.20082e-31)
(1.7911e-06 -2.98282e-13 -6.89503e-49)
(1.7911e-06 2.80225e-13 2.20326e-31)
(1.7911e-06 -7.154e-14 2.20145e-31)
(1.7911e-06 2.85267e-13 9.81931e-43)
(1.65592e-06 1.73435e-09 -1.45014e-30)
(1.65682e-06 1.9177e-09 0)
(1.65799e-06 3.83063e-10 3.87848e-31)
(1.65759e-06 1.46101e-10 2.65476e-31)
(1.65805e-06 8.10556e-12 -2.21452e-31)
(1.65774e-06 1.29815e-11 2.27604e-31)
(1.65797e-06 -5.95831e-12 -6.62282e-33)
(1.65781e-06 4.36969e-12 -2.10176e-31)
(1.65793e-06 -3.90036e-12 2.17493e-31)
(1.65784e-06 2.05964e-12 2.43498e-43)
(1.6579e-06 -1.31081e-12 -6.33775e-33)
(1.65786e-06 1.79261e-12 -5.86075e-42)
(1.65789e-06 -8.36063e-13 -4.41056e-31)
(1.65787e-06 7.698e-13 -7.10134e-34)
(1.65788e-06 -5.43116e-13 4.39862e-31)
(1.65787e-06 4.17145e-13 2.20287e-31)
(1.65788e-06 -3.18741e-13 -9.77715e-43)
(1.65787e-06 2.9582e-13 -4.40008e-31)
(1.65788e-06 -8.07741e-14 9.79739e-43)
(1.65788e-06 3.00069e-13 4.42449e-31)
(1.5111e-06 1.63556e-09 1.35801e-30)
(1.51301e-06 1.79239e-09 2.11747e-31)
(1.5143e-06 3.47109e-10 4.40443e-31)
(1.514e-06 1.34449e-10 -2.17954e-31)
(1.51444e-06 5.40947e-12 -1.98701e-31)
(1.51415e-06 1.27846e-11 2.10177e-31)
(1.51437e-06 -6.27249e-12 1.44521e-32)
(1.51421e-06 4.56407e-12 -5.14317e-33)
(1.51433e-06 -4.01037e-12 3.35129e-33)
(1.51424e-06 2.17565e-12 2.17393e-31)
(1.51431e-06 -1.40912e-12 -2.18009e-31)
(1.51426e-06 1.82732e-12 -2.21198e-31)
(1.51429e-06 -8.88249e-13 2.209e-31)
(1.51427e-06 7.97662e-13 -2.18492e-31)
(1.51429e-06 -5.67671e-13 5.81173e-34)
(1.51428e-06 4.34712e-13 -2.29075e-34)
(1.51428e-06 -3.33741e-13 9.54051e-46)
(1.51428e-06 3.05897e-13 2.19631e-31)
(1.51428e-06 -9.17753e-14 -2.20364e-31)
(1.51428e-06 3.06885e-13 -2.20874e-31)
(1.35686e-06 1.48812e-09 -6.23823e-32)
(1.35968e-06 1.6134e-09 -2.11049e-31)
(1.36105e-06 3.01276e-10 5.48431e-31)
(1.36083e-06 1.19239e-10 -2.54579e-32)
(1.36126e-06 2.54725e-12 -4.42847e-31)
(1.36099e-06 1.23104e-11 -9.16386e-33)
(1.3612e-06 -6.45047e-12 1.56195e-32)
(1.36104e-06 4.66447e-12 -5.59538e-33)
(1.36116e-06 -4.02944e-12 2.24186e-31)
(1.36107e-06 2.24904e-12 -4.7663e-46)
(1.36113e-06 -1.48348e-12 5.06681e-33)
(1.36109e-06 1.81871e-12 1.33627e-33)
(1.36112e-06 -9.21653e-13 2.21002e-31)
(1.3611e-06 8.0817e-13 8.38246e-34)
(1.36112e-06 -5.79499e-13 -2.20196e-31)
(1.3611e-06 4.42137e-13 4.39907e-31)
(1.36111e-06 -3.40421e-13 -2.20289e-31)
(1.36111e-06 3.08372e-13 -2.20377e-31)
(1.36111e-06 -1.02752e-13 2.20144e-31)
(1.36111e-06 3.04007e-13 -9.81935e-43)
(1.19411e-06 1.2983e-09 9.87681e-31)
(1.19769e-06 1.38919e-09 0)
(1.1991e-06 2.48398e-10 2.19265e-31)
(1.19895e-06 1.01385e-10 -2.16756e-32)
(1.19935e-06 -2.45857e-13 -2.21419e-31)
(1.1991e-06 1.15682e-11 -2.0968e-31)
(1.19929e-06 -6.46083e-12 -4.91483e-43)
(1.19915e-06 4.65209e-12 2.25588e-31)
(1.19926e-06 -3.94564e-12 2.16663e-31)
(1.19918e-06 2.27289e-12 4.76604e-46)
(1.19923e-06 -1.5229e-12 -4.77761e-46)
(1.19919e-06 1.75967e-12 -2.83544e-33)
(1.19922e-06 -9.35398e-13 2.19367e-31)
(1.1992e-06 7.99018e-13 -2.69545e-33)
(1.19922e-06 -5.77877e-13 -4.41072e-31)
(1.19921e-06 4.40339e-13 4.39872e-31)
(1.19921e-06 -3.40965e-13 1.8326e-34)
(1.19921e-06 3.03532e-13 -2.19837e-31)
(1.19921e-06 -1.14271e-13 2.72345e-34)
(1.19921e-06 2.93695e-13 -2.21113e-31)
(1.02383e-06 1.07516e-09 5.81927e-31)
(1.02796e-06 1.13145e-09 2.14563e-32)
(1.02935e-06 1.919e-10 0)
(1.02925e-06 8.1951e-11 2.92238e-47)
(1.02962e-06 -2.71018e-12 2.50623e-31)
(1.02939e-06 1.05603e-11 -4.83241e-48)
(1.02957e-06 -6.26422e-12 -2.47118e-43)
(1.02944e-06 4.50088e-12 2.19561e-31)
(1.02953e-06 -3.74411e-12 2.24777e-47)
(1.02946e-06 2.22578e-12 -2.19803e-31)
(1.02951e-06 -1.51679e-12 -4.40662e-31)
(1.02947e-06 1.64867e-12 2.18452e-31)
(1.0295e-06 -9.16931e-13 -9.7205e-43)
(1.02948e-06 7.66162e-13 -2.93355e-42)
(1.0295e-06 -5.57838e-13 2.20196e-31)
(1.02949e-06 4.22943e-13 -2.20083e-31)
(1.02949e-06 -3.27971e-13 2.20437e-31)
(1.02949e-06 2.88694e-13 -9.77513e-43)
(1.02949e-06 -1.2247e-13 9.78588e-43)
(1.02949e-06 2.70896e-13 2.21113e-31)
(8.47041e-07 8.30671e-10 -3.64301e-31)
(8.51436e-07 8.55127e-10 -2.09539e-31)
(8.52734e-07 1.35634e-10 1.91609e-46)
(8.52675e-07 6.20832e-11 -2.60942e-31)
(8.53002e-07 -4.57954e-12 -2.21434e-31)
(8.52801e-07 9.28529e-12 -1.03729e-32)
(8.52958e-07 -5.82326e-12 2.44289e-43)
(8.52843e-07 4.18422e-12 2.12469e-31)
(8.52927e-07 -3.40782e-12 2.251e-31)
(8.52863e-07 2.09854e-12 -4.76633e-46)
(8.52909e-07 -1.44996e-12 -2.23548e-31)
(8.52877e-07 1.47598e-12 1.63831e-33)
(8.52902e-07 -8.66353e-13 4.41691e-31)
(8.52884e-07 7.06278e-13 2.11598e-33)
(8.52897e-07 -5.1816e-13 -4.39583e-31)
(8.52888e-07 3.92448e-13 0)
(8.52894e-07 -3.05847e-13 -2.1041e-34)
(8.5289e-07 2.64173e-13 2.19779e-31)
(8.52892e-07 -1.28629e-13 -3.51249e-34)
(8.52892e-07 2.39711e-13 -2.21113e-31)
(6.64792e-07 5.79541e-10 -6.20243e-32)
(6.6911e-07 5.78354e-10 -2.09331e-31)
(6.70248e-07 8.37283e-11 1.7316e-31)
(6.70214e-07 4.29144e-11 3.79663e-32)
(6.7049e-07 -5.56023e-12 -4.76843e-31)
(6.7032e-07 7.69805e-12 0)
(6.70452e-07 -5.07205e-12 -1.08811e-32)
(6.70355e-07 3.65156e-12 8.06091e-33)
(6.70426e-07 -2.91113e-12 2.20549e-31)
(6.70372e-07 1.85499e-12 2.19804e-31)
(6.70411e-07 -1.30191e-12 -2.20329e-31)
(6.70384e-07 1.24205e-12 -2.18113e-31)
(6.70405e-07 -7.64776e-13 2.18738e-31)
(6.7039e-07 6.10835e-13 -1.21325e-33)
(6.70401e-07 -4.50334e-13 -2.21123e-31)
(6.70393e-07 3.39863e-13 2.20651e-31)
(6.70399e-07 -2.64142e-13 4.89816e-43)
(6.70395e-07 2.26228e-13 3.97912e-34)
(6.70397e-07 -1.24696e-13 2.20588e-31)
(6.70397e-07 1.95615e-13 -4.90971e-43)
(4.78183e-07 3.41529e-10 0)
(4.81998e-07 3.24935e-10 -1.09095e-30)
(4.82902e-07 4.08193e-11 -2.19179e-31)
(4.82883e-07 2.55631e-11 -9.03487e-32)
(4.83096e-07 -5.32724e-12 0)
(4.82964e-07 5.71205e-12 0)
(4.83066e-07 -3.92337e-12 2.31271e-31)
(4.82991e-07 2.83687e-12 4.8897e-43)
(4.83046e-07 -2.20988e-12 -4.30399e-46)
(4.83004e-07 1.46081e-12 1.90648e-45)
(4.83034e-07 -1.03718e-12 -9.76493e-43)
(4.83013e-07 9.2204e-13 2.21617e-31)
(4.83029e-07 -6.01596e-13 -9.78054e-43)
(4.83017e-07 4.71285e-13 0)
(4.83026e-07 -3.49648e-13 1.24808e-49)
(4.8302e-07 2.63049e-13 -2.20084e-31)
(4.83024e-07 -2.05566e-13 -3.73308e-34)
(4.83021e-07 1.7271e-13 -4.88758e-43)
(4.83023e-07 -1.1028e-13 -2.20143e-31)
(4.83023e-07 1.40411e-13 -4.90971e-43)
(2.88341e-07 1.48056e-10 0)
(2.91141e-07 1.29996e-10 3.42631e-30)
(2.91738e-07 1.23036e-11 -2.19893e-31)
(2.91726e-07 1.15632e-11 -2.08905e-31)
(2.91863e-07 -3.69946e-12 0)
(2.91776e-07 3.32701e-12 -2.18979e-31)
(2.91844e-07 -2.36184e-12 -9.57642e-46)
(2.91794e-07 1.7145e-12 2.19572e-31)
(2.9183e-07 -1.30993e-12 2.20546e-31)
(2.91802e-07 8.93033e-13 2.19806e-31)
(2.91822e-07 -6.42918e-13 -1.42621e-33)
(2.91808e-07 5.40186e-13 -2.19964e-31)
(2.91819e-07 -3.66443e-13 -9.78064e-43)
(2.91812e-07 2.8249e-13 1.002e-45)
(2.91817e-07 -2.09925e-13 -2.20195e-31)
(2.91813e-07 1.58118e-13 4.40049e-31)
(2.91816e-07 -1.222e-13 -5.59962e-35)
(2.91814e-07 1.0285e-13 -2.20228e-31)
(2.91815e-07 -7.23639e-14 2.19814e-31)
(2.91815e-07 7.8331e-14 -2.97411e-34)
(9.64181e-08 3.79171e-11 -8.58147e-32)
(9.75914e-08 3.09056e-11 9.8409e-31)
(9.78108e-08 2.03371e-12 3.73432e-31)
(9.78039e-08 3.1025e-12 -2.10899e-31)
(9.78544e-08 -1.25448e-12 -1.53824e-31)
(9.78215e-08 1.04526e-12 -2.05825e-33)
(9.78467e-08 -7.53609e-13 1.00753e-33)
(9.7828e-08 5.49051e-13 -6.53363e-34)
(9.78416e-08 -4.15218e-13 1.32794e-45)
(9.78312e-08 2.87777e-13 1.52586e-31)
(9.78386e-08 -2.06862e-13 0)
(9.78335e-08 1.68025e-13 0)
(9.78376e-08 -1.18533e-13 1.46457e-34)
(9.78347e-08 9.05154e-14 0)
(9.78368e-08 -6.76151e-14 -1.52769e-31)
(9.78353e-08 5.06329e-14 1.5278e-31)
(9.78363e-08 -3.98659e-14 -1.52834e-31)
(9.78356e-08 3.26473e-14 -1.5275e-31)
(9.78361e-08 -2.5013e-14 3.05642e-31)
(9.7836e-08 2.4283e-14 0)
)
;

boundaryField
{
    top
    {
        type            fixedValue;
        value           uniform (0 0 0);
    }
    bottom
    {
        type            symmetryPlane;
    }
    inlet
    {
        type            pressureInletVelocity;
        value           nonuniform List<vector> 
20
(
(2.43054e-06 0 0)
(2.41571e-06 0 0)
(2.38608e-06 0 0)
(2.34185e-06 0 0)
(2.28328e-06 0 0)
(2.21072e-06 0 0)
(2.1246e-06 0 0)
(2.02542e-06 0 0)
(1.91377e-06 0 0)
(1.79031e-06 0 0)
(1.65577e-06 0 0)
(1.51095e-06 0 0)
(1.35671e-06 0 0)
(1.19397e-06 0 0)
(1.02369e-06 0 0)
(8.46898e-07 0 0)
(6.64649e-07 0 0)
(4.7804e-07 0 0)
(2.88199e-07 0 0)
(9.63192e-08 0 0)
)
;
    }
    outlet
    {
        type            inletOutlet;
        inletValue      uniform (1 0 0);
        value           nonuniform List<vector> 
20
(
(2.42296e-06 1.05678e-14 -2.59365e-31)
(2.40833e-06 3.39564e-14 -2.21111e-31)
(2.37916e-06 6.7726e-14 -6.30614e-35)
(2.3356e-06 1.02416e-13 4.42199e-31)
(2.2779e-06 1.39211e-13 8.35138e-35)
(2.20637e-06 1.73201e-13 -2.21042e-31)
(2.12142e-06 2.08164e-13 -2.07932e-34)
(2.02352e-06 2.37445e-13 4.42083e-31)
(1.9132e-06 2.6507e-13 4.42398e-31)
(1.7911e-06 2.85267e-13 9.81931e-43)
(1.65788e-06 3.00069e-13 4.42449e-31)
(1.51428e-06 3.06885e-13 -2.20874e-31)
(1.36111e-06 3.04007e-13 -9.81935e-43)
(1.19921e-06 2.93695e-13 -2.21113e-31)
(1.02949e-06 2.70896e-13 2.21113e-31)
(8.52892e-07 2.39711e-13 -2.21113e-31)
(6.70397e-07 1.95615e-13 -4.90971e-43)
(4.83023e-07 1.40411e-13 -4.90971e-43)
(2.91815e-07 7.8331e-14 -2.97411e-34)
(9.7836e-08 2.4283e-14 0)
)
;
    }
    frontAndBack
    {
        type            empty;
    }
}


// ************************************************************************* //
