/*--------------------------------*- C++ -*----------------------------------*\
| =========                 |                                                 |
| \\      /  F ield         | OpenFOAM: The Open Source CFD Toolbox           |
|  \\    /   O peration     | Version:  5.0                                   |
|   \\  /    A nd           | Web:      www.OpenFOAM.org                      |
|    \\/     M anipulation  |                                                 |
\*---------------------------------------------------------------------------*/
FoamFile
{
    version     2.0;
    format      ascii;
    class       volScalarField;
    location    "406";
    object      p;
}
// * * * * * * * * * * * * * * * * * * * * * * * * * * * * * * * * * * * * * //

dimensions      [0 2 -2 0 0 0 0];

internalField   nonuniform List<scalar> 
1568
(
4.84755e-18
5.44015e-17
9.54871e-17
1.19654e-16
1.41172e-16
1.60578e-16
1.76291e-16
1.90673e-16
2.04024e-16
2.16358e-16
2.28056e-16
2.39454e-16
2.50699e-16
2.61826e-16
2.73e-16
2.84326e-16
2.95819e-16
3.07533e-16
3.19485e-16
3.31699e-16
3.44148e-16
3.56868e-16
3.6931e-16
3.78603e-16
3.85719e-16
3.95043e-16
4.10137e-16
4.31964e-16
4.56701e-16
4.78606e-16
4.93786e-16
5.03208e-16
5.10312e-16
5.19551e-16
5.31962e-16
5.44699e-16
5.57109e-16
5.69353e-16
5.8129e-16
5.93003e-16
6.04491e-16
6.15828e-16
6.26987e-16
6.38151e-16
6.49352e-16
6.60757e-16
6.72516e-16
6.849e-16
6.98088e-16
7.12509e-16
7.28744e-16
7.47383e-16
7.68845e-16
7.9433e-16
8.34635e-16
8.80613e-16
3.17314e-17
5.686e-17
1.1953e-16
1.31988e-16
1.44393e-16
1.73593e-16
1.87303e-16
2.00328e-16
2.15223e-16
2.27912e-16
2.3912e-16
2.50276e-16
2.61606e-16
2.72427e-16
2.83327e-16
2.94296e-16
3.05291e-16
3.16467e-16
3.27831e-16
3.39428e-16
3.51201e-16
3.63294e-16
3.75866e-16
3.9012e-16
4.04157e-16
4.17224e-16
4.30459e-16
4.41032e-16
4.47853e-16
4.58732e-16
4.71885e-16
4.84752e-16
4.98326e-16
5.12813e-16
5.25392e-16
5.37757e-16
5.492e-16
5.61087e-16
5.72269e-16
5.83452e-16
5.94536e-16
6.05791e-16
6.16475e-16
6.27417e-16
6.38366e-16
6.49788e-16
6.61593e-16
6.74124e-16
6.87211e-16
7.02298e-16
7.19283e-16
7.37685e-16
7.59031e-16
7.80715e-16
8.28255e-16
8.58006e-16
6.16224e-17
9.50917e-17
1.07772e-16
1.47969e-16
1.71498e-16
1.86214e-16
2.00468e-16
2.18372e-16
2.31049e-16
2.41077e-16
2.54767e-16
2.66509e-16
2.75997e-16
2.86619e-16
2.97307e-16
3.071e-16
3.17452e-16
3.27868e-16
3.38433e-16
3.48812e-16
3.59564e-16
3.70377e-16
3.81532e-16
3.92472e-16
4.02765e-16
4.12329e-16
4.24259e-16
4.37646e-16
4.51305e-16
4.6425e-16
4.76152e-16
4.8627e-16
4.97295e-16
5.08147e-16
5.18901e-16
5.29413e-16
5.40629e-16
5.50642e-16
5.61288e-16
5.71798e-16
5.81671e-16
5.91151e-16
6.02003e-16
6.12292e-16
6.23137e-16
6.34216e-16
6.45814e-16
6.58151e-16
6.71896e-16
6.86648e-16
7.02004e-16
7.1881e-16
7.45603e-16
7.63842e-16
8.02558e-16
8.29609e-16
8.81351e-17
1.13121e-16
1.54702e-16
1.65455e-16
1.87052e-16
2.03717e-16
2.17922e-16
2.33615e-16
2.46904e-16
2.58618e-16
2.69409e-16
2.79494e-16
2.90026e-16
3.00458e-16
3.09694e-16
3.19586e-16
3.2933e-16
3.38763e-16
3.48163e-16
3.58247e-16
3.68002e-16
3.77836e-16
3.87514e-16
3.97491e-16
4.06944e-16
4.16972e-16
4.2749e-16
4.38837e-16
4.50178e-16
4.61685e-16
4.72334e-16
4.81682e-16
4.90729e-16
5.00458e-16
5.10669e-16
5.20466e-16
5.30313e-16
5.40268e-16
5.49708e-16
5.59393e-16
5.69391e-16
5.79558e-16
5.89136e-16
5.98971e-16
6.0921e-16
6.19812e-16
6.30734e-16
6.43182e-16
6.55961e-16
6.68929e-16
6.87059e-16
7.05751e-16
7.21299e-16
7.38563e-16
7.80554e-16
8.01894e-16
1.17169e-16
1.32369e-16
1.70583e-16
1.83963e-16
2.03332e-16
2.19894e-16
2.34894e-16
2.48205e-16
2.59451e-16
2.71322e-16
2.82029e-16
2.92078e-16
3.01784e-16
3.10829e-16
3.19837e-16
3.29002e-16
3.37851e-16
3.4686e-16
3.5587e-16
3.64833e-16
3.73818e-16
3.82984e-16
3.92242e-16
4.01661e-16
4.10883e-16
4.20415e-16
4.30012e-16
4.39585e-16
4.49106e-16
4.58784e-16
4.68497e-16
4.7822e-16
4.87623e-16
4.96978e-16
5.06349e-16
5.15472e-16
5.24245e-16
5.33343e-16
5.42288e-16
5.51058e-16
5.59766e-16
5.68628e-16
5.77595e-16
5.87043e-16
5.96597e-16
6.06752e-16
6.17609e-16
6.28559e-16
6.40453e-16
6.55312e-16
6.69159e-16
6.8158e-16
7.05183e-16
7.24916e-16
7.50641e-16
7.71844e-16
1.49003e-16
1.67898e-16
1.93532e-16
2.10856e-16
2.25384e-16
2.39439e-16
2.545e-16
2.66639e-16
2.76772e-16
2.87711e-16
2.97846e-16
3.07036e-16
3.15796e-16
3.24514e-16
3.33126e-16
3.41163e-16
3.49151e-16
3.57275e-16
3.65427e-16
3.73337e-16
3.81462e-16
3.89735e-16
3.97952e-16
4.06153e-16
4.145e-16
4.22755e-16
4.31339e-16
4.40133e-16
4.4889e-16
4.57548e-16
4.66002e-16
4.74341e-16
4.82795e-16
4.9103e-16
4.99033e-16
5.07217e-16
5.15409e-16
5.23449e-16
5.3158e-16
5.39747e-16
5.47839e-16
5.56047e-16
5.64574e-16
5.73079e-16
5.82035e-16
5.91339e-16
6.0082e-16
6.1187e-16
6.23636e-16
6.33874e-16
6.48562e-16
6.66585e-16
6.79308e-16
6.90385e-16
7.24271e-16
7.40906e-16
1.81103e-16
1.97181e-16
2.2001e-16
2.33777e-16
2.48285e-16
2.62224e-16
2.73902e-16
2.84484e-16
2.95316e-16
3.05074e-16
3.13733e-16
3.21994e-16
3.30114e-16
3.37956e-16
3.45418e-16
3.5283e-16
3.60257e-16
3.67452e-16
3.74596e-16
3.81901e-16
3.89176e-16
3.9631e-16
4.03529e-16
4.10838e-16
4.1821e-16
4.25608e-16
4.33125e-16
4.40674e-16
4.48296e-16
4.55955e-16
4.63388e-16
4.70637e-16
4.77942e-16
4.85232e-16
4.92456e-16
4.99699e-16
5.07037e-16
5.14182e-16
5.21322e-16
5.28586e-16
5.35974e-16
5.43418e-16
5.50975e-16
5.58699e-16
5.66807e-16
5.75344e-16
5.84256e-16
5.93702e-16
6.03806e-16
6.15737e-16
6.28177e-16
6.37932e-16
6.55698e-16
6.72531e-16
6.92536e-16
7.08064e-16
2.14292e-16
2.26794e-16
2.47505e-16
2.59247e-16
2.72318e-16
2.83934e-16
2.93835e-16
3.03634e-16
3.13306e-16
3.21358e-16
3.29222e-16
3.36959e-16
3.44211e-16
3.51008e-16
3.57628e-16
3.64221e-16
3.7068e-16
3.77015e-16
3.83342e-16
3.89682e-16
3.95971e-16
4.02318e-16
4.08711e-16
4.15133e-16
4.2153e-16
4.28045e-16
4.3457e-16
4.41131e-16
4.4773e-16
4.54274e-16
4.60911e-16
4.6751e-16
4.73861e-16
4.80255e-16
4.86755e-16
4.93075e-16
4.99298e-16
5.05639e-16
5.11961e-16
5.183e-16
5.24679e-16
5.31141e-16
5.37792e-16
5.44717e-16
5.5189e-16
5.59396e-16
5.67176e-16
5.75922e-16
5.85231e-16
5.94045e-16
6.05143e-16
6.18345e-16
6.29605e-16
6.3765e-16
6.62251e-16
6.7478e-16
2.48495e-16
2.59315e-16
2.77412e-16
2.86966e-16
2.97283e-16
3.06567e-16
3.1615e-16
3.24817e-16
3.32354e-16
3.39598e-16
3.46569e-16
3.52908e-16
3.59117e-16
3.65115e-16
3.70875e-16
3.76469e-16
3.81915e-16
3.8739e-16
3.92825e-16
3.98125e-16
4.03472e-16
4.08971e-16
4.14333e-16
4.19722e-16
4.25185e-16
4.30665e-16
4.36157e-16
4.41715e-16
4.47269e-16
4.52755e-16
4.58269e-16
4.63748e-16
4.69212e-16
4.74611e-16
4.79978e-16
4.8534e-16
4.90696e-16
4.96072e-16
5.01494e-16
5.06938e-16
5.12425e-16
5.18066e-16
5.23874e-16
5.29775e-16
5.35885e-16
5.42461e-16
5.49373e-16
5.56562e-16
5.64166e-16
5.72959e-16
5.82609e-16
5.90159e-16
6.02672e-16
6.14244e-16
6.29254e-16
6.40288e-16
2.8339e-16
2.92266e-16
3.06288e-16
3.14083e-16
3.23029e-16
3.30912e-16
3.39008e-16
3.45788e-16
3.51775e-16
3.58117e-16
3.64011e-16
3.69245e-16
3.74309e-16
3.79272e-16
3.8399e-16
3.88686e-16
3.93236e-16
3.97702e-16
4.02122e-16
4.06654e-16
4.11032e-16
4.15378e-16
4.19811e-16
4.24297e-16
4.28736e-16
4.33202e-16
4.37707e-16
4.42225e-16
4.4672e-16
4.51279e-16
4.55741e-16
4.60172e-16
4.64628e-16
4.69083e-16
4.73476e-16
4.77859e-16
4.82319e-16
4.8675e-16
4.91168e-16
4.95636e-16
5.00192e-16
5.0485e-16
5.09589e-16
5.14503e-16
5.19643e-16
5.25031e-16
5.30548e-16
5.36839e-16
5.43553e-16
5.49748e-16
5.57654e-16
5.66142e-16
5.75101e-16
5.8087e-16
5.96857e-16
6.05451e-16
3.18727e-16
3.25623e-16
3.36159e-16
3.42718e-16
3.4974e-16
3.55696e-16
3.617e-16
3.66956e-16
3.72146e-16
3.77024e-16
3.81293e-16
3.85595e-16
3.8972e-16
3.93544e-16
3.97249e-16
4.00923e-16
4.0453e-16
4.08026e-16
4.11481e-16
4.14916e-16
4.18417e-16
4.21816e-16
4.25285e-16
4.28696e-16
4.32141e-16
4.35619e-16
4.39204e-16
4.42745e-16
4.46286e-16
4.49803e-16
4.53252e-16
4.56741e-16
4.60227e-16
4.63675e-16
4.67131e-16
4.70572e-16
4.74e-16
4.77432e-16
4.80894e-16
4.84408e-16
4.87971e-16
4.91572e-16
4.95269e-16
4.99171e-16
5.03241e-16
5.07404e-16
5.11899e-16
5.16737e-16
5.21572e-16
5.26972e-16
5.33851e-16
5.38706e-16
5.45596e-16
5.52934e-16
5.63164e-16
5.69901e-16
3.54548e-16
3.59516e-16
3.67165e-16
3.71682e-16
3.76694e-16
3.80823e-16
3.8525e-16
3.89099e-16
3.92757e-16
3.96062e-16
3.99341e-16
4.02217e-16
4.05068e-16
4.08136e-16
4.109e-16
4.1342e-16
4.1595e-16
4.18488e-16
4.21033e-16
4.23422e-16
4.25914e-16
4.28388e-16
4.30879e-16
4.33368e-16
4.3594e-16
4.38393e-16
4.40779e-16
4.43119e-16
4.45575e-16
4.48109e-16
4.50686e-16
4.53193e-16
4.55631e-16
4.58062e-16
4.60508e-16
4.63027e-16
4.65442e-16
4.67882e-16
4.70385e-16
4.72899e-16
4.75429e-16
4.78051e-16
4.80749e-16
4.83754e-16
4.86613e-16
4.89534e-16
4.92773e-16
4.95999e-16
4.99964e-16
5.0358e-16
5.07434e-16
5.11895e-16
5.18247e-16
5.21257e-16
5.29043e-16
5.34071e-16
3.90578e-16
3.93619e-16
3.98287e-16
4.00858e-16
4.0391e-16
4.06342e-16
4.09198e-16
4.11533e-16
4.13501e-16
4.15063e-16
4.18782e-16
4.20725e-16
4.20651e-16
4.22984e-16
4.24529e-16
4.26019e-16
4.27579e-16
4.29086e-16
4.30566e-16
4.32046e-16
4.33463e-16
4.34963e-16
4.36371e-16
4.37762e-16
4.39162e-16
4.40656e-16
4.42212e-16
4.43871e-16
4.45403e-16
4.46761e-16
4.48149e-16
4.49603e-16
4.51066e-16
4.52565e-16
4.54006e-16
4.55388e-16
4.56876e-16
4.58365e-16
4.59824e-16
4.61305e-16
4.62824e-16
4.64344e-16
4.65902e-16
4.68121e-16
4.68124e-16
4.70114e-16
4.73629e-16
4.75434e-16
4.77219e-16
4.79026e-16
4.83224e-16
4.85157e-16
4.86771e-16
4.89857e-16
4.95416e-16
4.9798e-16
4.26849e-16
4.27894e-16
4.29386e-16
4.30356e-16
4.31492e-16
4.32116e-16
4.33208e-16
4.33998e-16
4.34895e-16
4.35371e-16
4.36467e-16
4.3674e-16
4.36829e-16
4.38325e-16
4.38296e-16
4.38652e-16
4.392e-16
4.39635e-16
4.40046e-16
4.40557e-16
4.41038e-16
4.41487e-16
4.41947e-16
4.42482e-16
4.42927e-16
4.43406e-16
4.43795e-16
4.44179e-16
4.44627e-16
4.45139e-16
4.45617e-16
4.46101e-16
4.46535e-16
4.46974e-16
4.47483e-16
4.4788e-16
4.48382e-16
4.48822e-16
4.49246e-16
4.49743e-16
4.50221e-16
4.50487e-16
4.50566e-16
4.51992e-16
4.52046e-16
4.52406e-16
4.53331e-16
4.5371e-16
4.54947e-16
4.55984e-16
4.56215e-16
4.55822e-16
4.60028e-16
4.59978e-16
4.60301e-16
4.61637e-16
4.63125e-16
4.62304e-16
4.60808e-16
4.59882e-16
4.59158e-16
4.57891e-16
4.57284e-16
4.5632e-16
4.55294e-16
4.54949e-16
4.53715e-16
4.53372e-16
4.53312e-16
4.51747e-16
4.51654e-16
4.51304e-16
4.50719e-16
4.50158e-16
4.49661e-16
4.49149e-16
4.48593e-16
4.48005e-16
4.47505e-16
4.47013e-16
4.4648e-16
4.45901e-16
4.45349e-16
4.44696e-16
4.44101e-16
4.43621e-16
4.43109e-16
4.42534e-16
4.41993e-16
4.41401e-16
4.40862e-16
4.40369e-16
4.39792e-16
4.39213e-16
4.38705e-16
4.38142e-16
4.37581e-16
4.37183e-16
4.37101e-16
4.35566e-16
4.35415e-16
4.35025e-16
4.33923e-16
4.33678e-16
4.32291e-16
4.30717e-16
4.31599e-16
4.30478e-16
4.2787e-16
4.25785e-16
4.26936e-16
4.25412e-16
4.9944e-16
4.96848e-16
4.92049e-16
4.89266e-16
4.86785e-16
4.83636e-16
4.8141e-16
4.78909e-16
4.76657e-16
4.75253e-16
4.71517e-16
4.69489e-16
4.69528e-16
4.6714e-16
4.65562e-16
4.63989e-16
4.62353e-16
4.60834e-16
4.59291e-16
4.57692e-16
4.5614e-16
4.54694e-16
4.5307e-16
4.51416e-16
4.49814e-16
4.48266e-16
4.46808e-16
4.45414e-16
4.4386e-16
4.42212e-16
4.40514e-16
4.38952e-16
4.37423e-16
4.3592e-16
4.3428e-16
4.32769e-16
4.31167e-16
4.29673e-16
4.28105e-16
4.26509e-16
4.24874e-16
4.23341e-16
4.21646e-16
4.19284e-16
4.19291e-16
4.17374e-16
4.13498e-16
4.11774e-16
4.1004e-16
4.08081e-16
4.04433e-16
4.00096e-16
4.01576e-16
3.97785e-16
3.91482e-16
3.88999e-16
5.35515e-16
5.30789e-16
5.23113e-16
5.18675e-16
5.14146e-16
5.09078e-16
5.05281e-16
5.01246e-16
4.97472e-16
4.94335e-16
4.90861e-16
4.87893e-16
4.85052e-16
4.81932e-16
4.79196e-16
4.76491e-16
4.73916e-16
4.71299e-16
4.68766e-16
4.66198e-16
4.63707e-16
4.61125e-16
4.58642e-16
4.56154e-16
4.53697e-16
4.51063e-16
4.48393e-16
4.45628e-16
4.4306e-16
4.40487e-16
4.38021e-16
4.35454e-16
4.32881e-16
4.30283e-16
4.27788e-16
4.2522e-16
4.22713e-16
4.20125e-16
4.17566e-16
4.14966e-16
4.12357e-16
4.09661e-16
4.06923e-16
4.03803e-16
4.00909e-16
3.9787e-16
3.94443e-16
3.91592e-16
3.87282e-16
3.82523e-16
3.80536e-16
3.75912e-16
3.68298e-16
3.63066e-16
3.58549e-16
3.53006e-16
5.71459e-16
5.65017e-16
5.53936e-16
5.47538e-16
5.41272e-16
5.34345e-16
5.28828e-16
5.23281e-16
5.18032e-16
5.1336e-16
5.08787e-16
5.04562e-16
5.00452e-16
4.96486e-16
4.92697e-16
4.89038e-16
4.85395e-16
4.81793e-16
4.78244e-16
4.74743e-16
4.71234e-16
4.67648e-16
4.6413e-16
4.6053e-16
4.56961e-16
4.53373e-16
4.49909e-16
4.46301e-16
4.42761e-16
4.39088e-16
4.35541e-16
4.3188e-16
4.28376e-16
4.24763e-16
4.21322e-16
4.17685e-16
4.14223e-16
4.10603e-16
4.07125e-16
4.03464e-16
3.99866e-16
3.96055e-16
3.92381e-16
3.88298e-16
3.84233e-16
3.8011e-16
3.75397e-16
3.70219e-16
3.65924e-16
3.60795e-16
3.53252e-16
3.45426e-16
3.43931e-16
3.3645e-16
3.23093e-16
3.16969e-16
6.06919e-16
5.98205e-16
5.84397e-16
5.75994e-16
5.67903e-16
5.59221e-16
5.52023e-16
5.44957e-16
5.38323e-16
5.32423e-16
5.26525e-16
5.21135e-16
5.1593e-16
5.11056e-16
5.06107e-16
5.01556e-16
4.96754e-16
4.92405e-16
4.87665e-16
4.83386e-16
4.78611e-16
4.74406e-16
4.69626e-16
4.65368e-16
4.60503e-16
4.56233e-16
4.51271e-16
4.46991e-16
4.41998e-16
4.37727e-16
4.32719e-16
4.2849e-16
4.23591e-16
4.1941e-16
4.14495e-16
4.10362e-16
4.05513e-16
4.01326e-16
3.96447e-16
3.922e-16
3.87244e-16
3.82837e-16
3.77717e-16
3.72947e-16
3.67577e-16
3.62165e-16
3.56231e-16
3.51057e-16
3.43339e-16
3.3512e-16
3.3118e-16
3.22754e-16
3.10033e-16
3.01128e-16
2.91275e-16
2.81667e-16
6.41997e-16
6.31407e-16
6.14022e-16
6.03652e-16
5.9372e-16
5.83061e-16
5.74492e-16
5.65934e-16
5.57978e-16
5.50684e-16
5.4383e-16
5.37192e-16
5.31116e-16
5.24992e-16
5.19266e-16
5.13418e-16
5.08011e-16
5.0235e-16
4.97059e-16
4.91391e-16
4.86138e-16
4.80513e-16
4.75175e-16
4.69521e-16
4.64167e-16
4.5844e-16
4.52978e-16
4.47208e-16
4.41698e-16
4.35925e-16
4.30458e-16
4.24781e-16
4.19334e-16
4.13688e-16
4.08292e-16
4.02762e-16
3.97355e-16
3.91856e-16
3.8645e-16
3.80894e-16
3.75343e-16
3.69684e-16
3.63888e-16
3.57811e-16
3.51527e-16
3.45268e-16
3.38243e-16
3.30134e-16
3.22865e-16
3.16535e-16
3.04181e-16
2.91279e-16
2.88612e-16
2.78217e-16
2.56311e-16
2.46418e-16
6.76369e-16
6.63562e-16
6.42858e-16
6.30879e-16
6.19336e-16
6.06435e-16
5.96309e-16
5.86444e-16
5.77161e-16
5.68651e-16
5.60832e-16
5.5301e-16
5.46014e-16
5.38734e-16
5.32438e-16
5.25441e-16
5.19438e-16
5.12364e-16
5.0665e-16
4.99562e-16
4.93965e-16
4.86638e-16
4.81131e-16
4.7368e-16
4.68192e-16
4.60535e-16
4.55074e-16
4.47179e-16
4.41759e-16
4.33827e-16
4.28545e-16
4.20671e-16
4.1552e-16
4.07748e-16
4.02695e-16
3.94785e-16
3.89732e-16
3.8202e-16
3.76876e-16
3.69108e-16
3.63824e-16
3.55934e-16
3.50256e-16
3.42315e-16
3.36221e-16
3.27568e-16
3.20007e-16
3.11699e-16
3.03185e-16
2.89566e-16
2.82764e-16
2.74147e-16
2.55135e-16
2.40244e-16
2.26737e-16
2.124e-16
7.09939e-16
6.94585e-16
6.71451e-16
6.55971e-16
6.43244e-16
6.29339e-16
6.1711e-16
6.06238e-16
5.95696e-16
5.86419e-16
5.77017e-16
5.68898e-16
5.60473e-16
5.53095e-16
5.44833e-16
5.37934e-16
5.29927e-16
5.23407e-16
5.15195e-16
5.08838e-16
5.00477e-16
4.94242e-16
4.8575e-16
4.79423e-16
4.70778e-16
4.64427e-16
4.55535e-16
4.49064e-16
4.39983e-16
4.33558e-16
4.24506e-16
4.18222e-16
4.09358e-16
4.03147e-16
3.94415e-16
3.88481e-16
3.7999e-16
3.73709e-16
3.65295e-16
3.59124e-16
3.50758e-16
3.44282e-16
3.35764e-16
3.28666e-16
3.19574e-16
3.11717e-16
3.02617e-16
2.93073e-16
2.81568e-16
2.73317e-16
2.60636e-16
2.3997e-16
2.34917e-16
2.22347e-16
1.93171e-16
1.78547e-16
7.4253e-16
7.24757e-16
6.97612e-16
6.8072e-16
6.65593e-16
6.5001e-16
6.36618e-16
6.2444e-16
6.12801e-16
6.02487e-16
5.92365e-16
5.83287e-16
5.73853e-16
5.65672e-16
5.56671e-16
5.49107e-16
5.4001e-16
5.32814e-16
5.23619e-16
5.16637e-16
5.07129e-16
5.00329e-16
4.90405e-16
4.83819e-16
4.73618e-16
4.67115e-16
4.56481e-16
4.49901e-16
4.38897e-16
4.32448e-16
4.21377e-16
4.15337e-16
4.04517e-16
3.9868e-16
3.8785e-16
3.82216e-16
3.7126e-16
3.65816e-16
3.55363e-16
3.49616e-16
3.38893e-16
3.33104e-16
3.22458e-16
3.15825e-16
3.0502e-16
2.97716e-16
2.85631e-16
2.76648e-16
2.64569e-16
2.52143e-16
2.36923e-16
2.27188e-16
2.08282e-16
1.86262e-16
1.64736e-16
1.46337e-16
7.74022e-16
7.5453e-16
7.22448e-16
7.05663e-16
6.87407e-16
6.70019e-16
6.56308e-16
6.42305e-16
6.30201e-16
6.18607e-16
6.08507e-16
5.97632e-16
5.88854e-16
5.7855e-16
5.70577e-16
5.60215e-16
5.52791e-16
5.42036e-16
5.3507e-16
5.2375e-16
5.17098e-16
5.05192e-16
4.98764e-16
4.86392e-16
4.80096e-16
4.67292e-16
4.60905e-16
4.47547e-16
4.41455e-16
4.27899e-16
4.22237e-16
4.09086e-16
4.03726e-16
3.90507e-16
3.85057e-16
3.71615e-16
3.66411e-16
3.53743e-16
3.47758e-16
3.352e-16
3.2945e-16
3.17008e-16
3.10757e-16
2.98664e-16
2.91546e-16
2.79013e-16
2.70229e-16
2.57379e-16
2.46636e-16
2.31694e-16
2.19246e-16
1.99496e-16
1.81303e-16
1.7021e-16
1.33975e-16
1.14693e-16
8.0372e-16
7.80852e-16
7.42758e-16
7.25375e-16
7.06092e-16
6.87698e-16
6.72751e-16
6.584e-16
6.4541e-16
6.33539e-16
6.22261e-16
6.11493e-16
6.014e-16
5.91149e-16
5.81403e-16
5.71393e-16
5.6203e-16
5.51851e-16
5.42523e-16
5.32129e-16
5.22752e-16
5.12143e-16
5.02797e-16
4.91803e-16
4.82877e-16
4.71936e-16
4.62319e-16
4.49813e-16
4.39378e-16
4.26712e-16
4.16896e-16
4.04989e-16
3.9597e-16
3.84486e-16
3.76015e-16
3.64947e-16
3.56632e-16
3.44864e-16
3.3703e-16
3.26413e-16
3.18519e-16
3.07278e-16
2.98924e-16
2.87475e-16
2.78443e-16
2.66488e-16
2.56775e-16
2.43637e-16
2.31301e-16
2.15695e-16
2.02564e-16
1.8357e-16
1.64537e-16
1.44425e-16
1.08172e-16
8.52414e-17
8.31851e-16
8.06182e-16
7.65687e-16
7.43572e-16
7.23532e-16
7.03671e-16
6.87003e-16
6.72875e-16
6.58824e-16
6.46825e-16
6.34524e-16
6.24167e-16
6.12457e-16
6.03163e-16
5.91507e-16
5.8281e-16
5.70685e-16
5.62394e-16
5.49531e-16
5.41609e-16
5.27861e-16
5.20154e-16
5.05754e-16
4.98499e-16
4.84612e-16
4.78788e-16
4.62339e-16
4.53302e-16
4.3524e-16
4.26637e-16
4.09818e-16
4.05733e-16
3.91163e-16
3.85289e-16
3.68776e-16
3.6295e-16
3.46743e-16
3.41234e-16
3.26111e-16
3.19334e-16
3.04001e-16
2.98308e-16
2.83845e-16
2.77035e-16
2.62872e-16
2.55028e-16
2.40042e-16
2.30044e-16
2.1483e-16
2.02149e-16
1.83341e-16
1.64351e-16
1.45843e-16
1.22692e-16
8.30535e-17
5.72002e-17
8.60031e-16
8.29022e-16
7.84306e-16
7.60198e-16
7.39757e-16
7.2077e-16
7.04324e-16
6.89487e-16
6.76083e-16
6.63574e-16
6.51817e-16
6.40331e-16
6.29303e-16
6.18206e-16
6.074e-16
5.96237e-16
5.85258e-16
5.73845e-16
5.62554e-16
5.50659e-16
5.38973e-16
5.26622e-16
5.14041e-16
4.99374e-16
4.8527e-16
4.72021e-16
4.58887e-16
4.48077e-16
4.41022e-16
4.30155e-16
4.16975e-16
4.03314e-16
3.88974e-16
3.74328e-16
3.61937e-16
3.49562e-16
3.37992e-16
3.26076e-16
3.14656e-16
3.03607e-16
2.92919e-16
2.81685e-16
2.70738e-16
2.59736e-16
2.48644e-16
2.37218e-16
2.25421e-16
2.12981e-16
1.99338e-16
1.8464e-16
1.68442e-16
1.49414e-16
1.28453e-16
1.04585e-16
6.01891e-17
2.90711e-17
8.8256e-16
8.36282e-16
7.96163e-16
7.70564e-16
7.4906e-16
7.30379e-16
7.14186e-16
6.99694e-16
6.86455e-16
6.74051e-16
6.6226e-16
6.50791e-16
6.39569e-16
6.28329e-16
6.17117e-16
6.05687e-16
5.94174e-16
5.82319e-16
5.70349e-16
5.57978e-16
5.45519e-16
5.32615e-16
5.20206e-16
5.10803e-16
5.03681e-16
4.94089e-16
4.78913e-16
4.56813e-16
4.32072e-16
4.09994e-16
3.94894e-16
3.85318e-16
3.78227e-16
3.68764e-16
3.56396e-16
3.43418e-16
3.31008e-16
3.18562e-16
3.06615e-16
2.94696e-16
2.83225e-16
2.71695e-16
2.60538e-16
2.49235e-16
2.3805e-16
2.26508e-16
2.14769e-16
2.02314e-16
1.8908e-16
1.74537e-16
1.58404e-16
1.39726e-16
1.18201e-16
9.2646e-17
5.25829e-17
6.37377e-18
)
;

boundaryField
{
    top
    {
        type            zeroGradient;
    }
    bottom
    {
        type            zeroGradient;
    }
    rotatingWall
    {
        type            zeroGradient;
    }
    wall
    {
        type            zeroGradient;
    }
    frontAndBack
    {
        type            empty;
    }
}


// ************************************************************************* //
