/*--------------------------------*- C++ -*----------------------------------*\
| =========                 |                                                 |
| \\      /  F ield         | OpenFOAM: The Open Source CFD Toolbox           |
|  \\    /   O peration     | Version:  5.0                                   |
|   \\  /    A nd           | Web:      www.OpenFOAM.org                      |
|    \\/     M anipulation  |                                                 |
\*---------------------------------------------------------------------------*/
FoamFile
{
    version     2.0;
    format      ascii;
    class       volVectorField;
    location    "0.8";
    object      U;
}
// * * * * * * * * * * * * * * * * * * * * * * * * * * * * * * * * * * * * * //

dimensions      [0 1 -1 0 0 0 0];

internalField   nonuniform List<vector> 
50
(
(1.00749 5.46004e-17 2.63397e-52)
(1.00749 -9.28903e-17 -9.05475e-38)
(1.00749 2.89952e-17 1.38768e-36)
(1.00749 2.03703e-17 -7.9768e-38)
(1.00749 -1.16792e-17 -1.43726e-36)
(1.00749 1.71865e-16 -5.00743e-52)
(1.00749 -3.16537e-17 -3.5557e-36)
(1.00749 5.2153e-17 3.63383e-36)
(1.00749 1.40652e-16 -6.3592e-38)
(1.00749 1.74749e-17 -2.1803e-37)
(1.00749 2.79612e-16 3.60824e-39)
(1.00749 -1.03728e-16 1.09015e-35)
(1.00749 -6.68018e-19 3.81552e-38)
(1.00749 2.89476e-16 -1.27184e-37)
(1.00749 1.12417e-16 -4.32426e-37)
(1.00749 3.49401e-16 -1.80893e-36)
(1.00749 -1.61495e-16 7.3476e-36)
(1.00749 -2.88525e-17 -7.63104e-38)
(1.00749 4.14464e-16 -7.32944e-36)
(1.00749 1.72191e-16 2.24571e-36)
(1.00749 4.33285e-16 7.21166e-36)
(1.00749 -1.64098e-16 -7.18772e-36)
(1.00749 -7.28869e-18 -1.14466e-37)
(1.00749 5.88333e-16 1.08397e-35)
(1.00749 3.19508e-16 5.8759e-36)
(1.00749 4.17998e-16 4.81098e-39)
(1.00749 -1.8581e-16 -7.34942e-36)
(1.00749 -1.50626e-17 -7.18772e-36)
(1.00749 6.93299e-16 7.26766e-36)
(1.00749 3.72085e-16 -2.08945e-37)
(1.00749 3.74394e-16 1.66914e-52)
(1.00749 -1.60296e-16 3.63383e-36)
(1.00749 -7.85629e-17 -3.63383e-36)
(1.00749 7.04508e-16 -1.09015e-35)
(1.00749 4.62291e-16 -5.45075e-36)
(1.00749 4.20851e-16 1.80412e-36)
(1.00749 -1.91727e-16 3.46304e-36)
(1.00749 -2.17691e-16 -4.1789e-38)
(1.00749 6.86166e-16 7.26766e-36)
(1.00749 5.48347e-16 6.15934e-37)
(1.00749 4.10996e-16 -1.80412e-36)
(1.00749 -2.1443e-16 -3.71559e-36)
(1.00749 -2.35326e-16 4.1789e-38)
(1.00749 6.77346e-16 3.63383e-36)
(1.00749 6.09856e-16 -3.63383e-36)
(1.00749 3.6933e-16 -2.2624e-39)
(1.00749 -2.41216e-16 -2.44754e-36)
(1.00749 -1.6218e-16 7.91007e-38)
(1.00749 6.30039e-16 -2.42346e-36)
(1.00749 5.55305e-16 -2.29277e-36)
)
;

boundaryField
{
    top
    {
        type            zeroGradient;
    }
    bottom
    {
        type            symmetryPlane;
    }
    inlet
    {
        type            pressureInletVelocity;
        value           nonuniform List<vector> 10((1.00749 -0 -0) (1.00749 -0 -0) (1.00749 -0 -0) (1.00749 -0 -0) (1.00749 -0 -0) (1.00749 -0 -0) (1.00749 -0 -0) (1.00749 -0 -0) (1.00749 -0 -0) (1.00749 -0 -0));
    }
    outlet
    {
        type            inletOutlet;
        inletValue      nonuniform 0();
        value           nonuniform 0();
    }
    frontAndBack
    {
        type            empty;
    }
    procBoundary0to1
    {
        type            processor;
        value           nonuniform List<vector> 10((1.00749 -6.44557e-17 7.67497e-37) (1.00749 -2.30015e-16 3.30679e-36) (1.00749 -2.95893e-16 -1.48987e-36) (1.00749 -3.32843e-16 6.50456e-37) (1.00749 -3.87867e-16 6.50456e-37) (1.00749 -4.69843e-16 1.07112e-48) (1.00749 -4.54684e-16 1.49532e-36) (1.00749 -4.83288e-16 3.63383e-36) (1.00749 -4.50132e-16 -3.63383e-36) (1.00749 -4.66758e-16 -3.99401e-36));
    }
}


// ************************************************************************* //
