/*--------------------------------*- C++ -*----------------------------------*\
| =========                 |                                                 |
| \\      /  F ield         | OpenFOAM: The Open Source CFD Toolbox           |
|  \\    /   O peration     | Version:  5.0                                   |
|   \\  /    A nd           | Web:      www.OpenFOAM.org                      |
|    \\/     M anipulation  |                                                 |
\*---------------------------------------------------------------------------*/
FoamFile
{
    version     2.0;
    format      ascii;
    class       surfaceScalarField;
    location    "519";
    object      phi;
}
// * * * * * * * * * * * * * * * * * * * * * * * * * * * * * * * * * * * * * //

dimensions      [0 3 -1 0 0 0 0];

internalField   nonuniform List<scalar> 
3052
(
2.48314e-26
-2.66446e-26
8.59139e-26
-6.10406e-26
1.76923e-25
-9.10602e-26
2.91141e-25
-1.14294e-25
4.24515e-25
-1.33446e-25
5.73793e-25
-1.49339e-25
7.35624e-25
-1.61883e-25
9.07139e-25
-1.71559e-25
1.08575e-24
-1.78654e-25
1.26901e-24
-1.83297e-25
1.45464e-24
-1.85658e-25
1.64053e-24
-1.85923e-25
1.82474e-24
-1.8424e-25
2.00544e-24
-1.80726e-25
2.18093e-24
-1.75522e-25
2.34967e-24
-1.68759e-25
2.5102e-24
-1.60554e-25
2.66122e-24
-1.5103e-25
2.80151e-24
-1.40307e-25
2.93e-24
-1.28506e-25
3.04573e-24
-1.15744e-25
3.14785e-24
-1.02134e-25
3.23565e-24
-8.78083e-26
3.30819e-24
-7.25475e-26
3.36547e-24
-5.72828e-26
3.4074e-24
-4.19365e-26
3.43286e-24
-2.54627e-26
3.44134e-24
-8.46939e-27
3.43306e-24
8.27968e-27
3.40779e-24
2.52734e-26
3.36604e-24
4.1761e-26
3.30894e-24
5.71133e-26
3.23657e-24
7.23792e-26
3.14893e-24
8.76526e-26
3.04696e-24
1.01987e-25
2.93137e-24
1.15606e-25
2.80301e-24
1.28387e-25
2.66283e-24
1.40199e-25
2.51191e-24
1.50941e-25
2.35145e-24
1.60484e-25
2.18277e-24
1.68706e-25
2.00731e-24
1.75487e-25
1.82663e-24
1.80714e-25
1.64241e-24
1.84247e-25
1.45649e-24
1.8596e-25
1.27081e-24
1.85713e-25
1.08748e-24
1.83359e-25
9.08783e-25
1.78739e-25
7.37135e-25
1.71687e-25
5.75185e-25
1.61991e-25
4.2582e-25
1.49406e-25
2.9224e-25
1.33622e-25
1.77881e-25
1.14403e-25
8.69566e-26
9.09691e-26
2.60164e-26
6.09806e-26
2.60215e-26
2.16318e-26
-4.82168e-26
7.69612e-26
-1.16486e-25
1.59167e-25
-1.73481e-25
2.64277e-25
-2.19637e-25
3.88045e-25
-2.57423e-25
5.26637e-25
-2.88113e-25
6.77153e-25
-3.12556e-25
8.36857e-25
-3.31404e-25
1.00318e-24
-3.451e-25
1.17382e-24
-3.54058e-25
1.34669e-24
-3.58635e-25
1.5198e-24
-3.59135e-25
1.69131e-24
-3.55843e-25
1.85954e-24
-3.49034e-25
2.0229e-24
-3.38965e-25
2.17995e-24
-3.25878e-25
2.32934e-24
-3.10011e-25
2.46986e-24
-2.91601e-25
2.60037e-24
-2.70872e-25
2.71987e-24
-2.4805e-25
2.82745e-24
-2.23358e-25
2.9223e-24
-1.97022e-25
3.00373e-24
-1.69263e-25
3.07146e-24
-1.40298e-25
3.12512e-24
-1.1095e-25
3.16401e-24
-8.08325e-26
3.18777e-24
-4.92205e-26
3.19586e-24
-1.6555e-26
3.18795e-24
1.62096e-26
3.16436e-24
4.88861e-26
3.12563e-24
8.05173e-26
3.07213e-24
1.10647e-25
3.00455e-24
1.4e-25
2.92327e-24
1.68981e-25
2.82856e-24
1.9676e-25
2.7211e-24
2.23117e-25
2.60172e-24
2.47836e-25
2.47131e-24
2.70684e-25
2.33088e-24
2.91445e-25
2.18155e-24
3.09888e-25
2.02456e-24
3.2579e-25
1.86122e-24
3.38914e-25
1.69301e-24
3.49024e-25
1.52149e-24
3.5587e-25
1.34836e-24
3.592e-25
1.17545e-24
3.58739e-25
1.00472e-24
3.54202e-25
8.38312e-25
3.45272e-25
6.78529e-25
3.31598e-25
5.27878e-25
3.12774e-25
3.8909e-25
2.8833e-25
2.65236e-25
2.57615e-25
1.59968e-25
2.19807e-25
7.74905e-26
1.73579e-25
2.20096e-26
1.16582e-25
4.80377e-26
1.75629e-26
-6.58082e-26
6.59345e-26
-1.64961e-25
1.40287e-25
-2.48004e-25
2.36259e-25
-3.158e-25
3.49852e-25
-3.712e-25
4.77759e-25
-4.16184e-25
6.16954e-25
-4.51896e-25
7.64761e-25
-4.79341e-25
9.18817e-25
-4.99275e-25
1.07694e-24
-5.12295e-25
1.23713e-24
-5.1892e-25
1.39753e-24
-5.19624e-25
1.55644e-24
-5.14841e-25
1.71229e-24
-5.04958e-25
1.8636e-24
-4.90351e-25
2.00904e-24
-4.71384e-25
2.14738e-24
-4.48404e-25
2.27747e-24
-4.21742e-25
2.39828e-24
-3.91735e-25
2.5089e-24
-3.58707e-25
2.60849e-24
-3.22984e-25
2.69634e-24
-2.84892e-25
2.77182e-24
-2.44774e-25
2.83454e-24
-2.03034e-25
2.88376e-24
-1.6017e-25
2.91898e-24
-1.16057e-25
2.94021e-24
-7.04538e-26
2.94741e-24
-2.37436e-26
2.94035e-24
2.32796e-26
2.91926e-24
6.99991e-26
2.88419e-24
1.15619e-25
2.83511e-24
1.59751e-25
2.77252e-24
2.02632e-25
2.69715e-24
2.44391e-25
2.60943e-24
2.84534e-25
2.50994e-24
3.22657e-25
2.39942e-24
3.58416e-25
2.27869e-24
3.91482e-25
2.14867e-24
4.21532e-25
2.0104e-24
4.4824e-25
1.865e-24
4.7127e-25
1.71371e-24
4.90288e-25
1.55788e-24
5.04946e-25
1.39896e-24
5.14885e-25
1.23853e-24
5.19725e-25
1.0783e-24
5.19072e-25
9.20122e-25
5.12494e-25
7.65989e-25
4.99519e-25
6.18077e-25
4.79628e-25
4.78768e-25
4.52206e-25
3.50738e-25
4.16484e-25
2.36947e-25
3.71531e-25
1.40807e-25
3.16072e-25
6.62644e-26
2.48262e-25
1.78366e-26
1.65098e-25
6.58803e-26
1.51725e-26
-8.09812e-26
5.75482e-26
-2.07431e-25
1.23862e-25
-3.14456e-25
2.10422e-25
-4.02517e-25
3.13727e-25
-4.74659e-25
4.30487e-25
-5.33086e-25
5.57948e-25
-5.79486e-25
6.93593e-25
-6.15103e-25
8.35134e-25
-6.40921e-25
9.8051e-25
-6.57767e-25
1.12785e-24
-6.66347e-25
1.27542e-24
-6.67276e-25
1.42162e-24
-6.6112e-25
1.565e-24
-6.48404e-25
1.7042e-24
-6.29618e-25
1.83799e-24
-6.05228e-25
1.96522e-24
-5.75683e-25
2.08485e-24
-5.41421e-25
2.19595e-24
-5.02869e-25
2.29765e-24
-4.60448e-25
2.38922e-24
-4.14577e-25
2.46998e-24
-3.65679e-25
2.53937e-24
-3.14181e-25
2.59685e-24
-2.60527e-25
2.64181e-24
-2.05137e-25
2.67392e-24
-1.48158e-25
2.69316e-24
-8.96908e-26
2.69961e-24
-3.01923e-26
2.69327e-24
2.96389e-26
2.67414e-24
8.91483e-26
2.64214e-24
1.47633e-25
2.59729e-24
2.04632e-25
2.53992e-24
2.60042e-25
2.47062e-24
3.13723e-25
2.38995e-24
3.65253e-25
2.29846e-24
4.14189e-25
2.19683e-24
4.601e-25
2.0858e-24
5.0257e-25
1.96622e-24
5.41173e-25
1.83904e-24
5.7549e-25
1.70529e-24
6.05094e-25
1.5661e-24
6.29548e-25
1.42273e-24
6.48398e-25
1.27652e-24
6.6118e-25
1.12893e-24
6.67401e-25
9.81564e-25
6.66536e-25
8.36137e-25
6.5802e-25
6.94525e-25
6.41233e-25
5.58803e-25
6.15457e-25
4.3125e-25
5.79868e-25
3.14347e-25
5.33498e-25
2.10911e-25
4.75081e-25
1.24199e-25
4.02896e-25
5.77414e-26
3.14818e-25
1.52615e-26
2.07683e-25
8.1147e-26
1.32004e-26
-9.42104e-26
5.03278e-26
-2.44642e-25
1.09185e-25
-3.73422e-25
1.86515e-25
-4.7997e-25
2.79342e-25
-5.67612e-25
3.84803e-25
-6.38666e-25
5.00303e-25
-6.95096e-25
6.23486e-25
-7.38386e-25
7.52227e-25
-7.69755e-25
8.84602e-25
-7.90226e-25
1.01884e-24
-8.00665e-25
1.15334e-24
-8.01849e-25
1.28664e-24
-7.94478e-25
1.41737e-24
-7.79193e-25
1.54429e-24
-7.56594e-25
1.66626e-24
-7.27253e-25
1.78225e-24
-6.91715e-25
1.89131e-24
-6.50511e-25
1.99256e-24
-6.04156e-25
2.08524e-24
-5.5316e-25
2.16867e-24
-4.98022e-25
2.24222e-24
-4.39248e-25
2.30535e-24
-3.77331e-25
2.35758e-24
-3.12765e-25
2.39845e-24
-2.46006e-25
2.42768e-24
-1.77388e-25
2.44522e-24
-1.0723e-25
2.45109e-24
-3.60599e-26
2.44529e-24
3.54519e-26
2.42783e-24
1.06631e-25
2.39867e-24
1.76805e-25
2.35789e-24
2.45445e-25
2.30573e-24
3.12229e-25
2.24266e-24
3.76826e-25
2.16917e-24
4.38778e-25
2.08581e-24
4.97595e-25
1.99317e-24
5.52779e-25
1.89197e-24
6.03828e-25
1.78295e-24
6.50241e-25
1.66699e-24
6.91508e-25
1.54504e-24
7.27111e-25
1.41813e-24
7.56521e-25
1.28741e-24
7.79193e-25
1.15411e-24
7.94552e-25
1.01959e-24
8.01998e-25
8.85328e-25
8.00887e-25
7.52917e-25
7.90517e-25
6.24134e-25
7.70107e-25
5.00891e-25
7.38793e-25
3.85298e-25
6.95558e-25
2.79744e-25
6.39149e-25
1.86841e-25
5.68078e-25
1.09364e-25
4.80468e-25
5.04439e-26
3.73857e-25
1.31647e-26
2.45023e-25
9.43162e-26
1.13837e-26
-1.05607e-25
4.393e-26
-2.77265e-25
9.56172e-26
-4.25199e-25
1.6402e-25
-5.48472e-25
2.46504e-25
-6.50197e-25
3.40602e-25
-7.32863e-25
4.43973e-25
-7.98559e-25
5.54476e-25
-8.48975e-25
6.70164e-25
-8.85522e-25
7.89256e-25
-9.09391e-25
9.1013e-25
-9.21605e-25
1.03131e-24
-9.23087e-25
1.15143e-24
-9.1466e-25
1.26927e-24
-8.97079e-25
1.38369e-24
-8.71055e-25
1.49364e-24
-8.37252e-25
1.5982e-24
-7.96308e-25
1.6965e-24
-7.48838e-25
1.78775e-24
-6.95439e-25
1.87127e-24
-6.36698e-25
1.94642e-24
-5.73193e-25
2.01265e-24
-5.05494e-25
2.06947e-24
-4.34163e-25
2.11645e-24
-3.59751e-25
2.15322e-24
-2.82781e-25
2.17955e-24
-2.0372e-25
2.19537e-24
-1.23045e-25
2.20066e-24
-4.13425e-26
2.19542e-24
4.07102e-26
2.17964e-24
1.22421e-25
2.15335e-24
2.03112e-25
2.11662e-24
2.82195e-25
2.06969e-24
3.59191e-25
2.01291e-24
4.33636e-25
1.94671e-24
5.05006e-25
1.87159e-24
5.72749e-25
1.78811e-24
6.36305e-25
1.69688e-24
6.95101e-25
1.59861e-24
7.4856e-25
1.49407e-24
7.96097e-25
1.38412e-24
8.37111e-25
1.26972e-24
8.70987e-25
1.15188e-24
8.97088e-25
1.03175e-24
9.14745e-25
9.10569e-25
9.23253e-25
7.8968e-25
9.21848e-25
6.70571e-25
9.09703e-25
5.54846e-25
8.8591e-25
4.44296e-25
8.49424e-25
3.40898e-25
7.99038e-25
2.46748e-25
7.33382e-25
1.64161e-25
6.50751e-25
9.57213e-26
5.48993e-25
4.39996e-26
4.25642e-25
1.14717e-26
2.77635e-25
1.05792e-25
9.84294e-27
-1.15478e-25
3.80075e-26
-3.05497e-25
8.29466e-26
-4.70212e-25
1.42657e-25
-6.08262e-25
2.14952e-25
-7.22573e-25
2.97699e-25
-8.15689e-25
3.8886e-25
-8.89796e-25
4.86534e-25
-9.4672e-25
5.8896e-25
-9.88014e-25
6.94527e-25
-1.01502e-24
8.01774e-25
-1.02891e-24
9.09356e-25
-1.03072e-24
1.01605e-24
-1.0214e-24
1.12073e-24
-1.00181e-24
1.2224e-24
-9.72756e-25
1.3201e-24
-9.34994e-25
1.41301e-24
-8.89244e-25
1.50035e-24
-8.36201e-25
1.58142e-24
-7.76535e-25
1.6556e-24
-7.10903e-25
1.72234e-24
-6.39949e-25
1.78115e-24
-5.64307e-25
1.83158e-24
-4.84601e-25
1.87326e-24
-4.01441e-25
1.9059e-24
-3.15422e-25
1.9293e-24
-2.27113e-25
1.94336e-24
-1.37101e-25
1.94805e-24
-4.60301e-26
1.94337e-24
4.54011e-26
1.92932e-24
1.3648e-25
1.90594e-24
2.26508e-25
1.87332e-24
3.14838e-25
1.83165e-24
4.00885e-25
1.78123e-24
4.84077e-25
1.72244e-24
5.63822e-25
1.65572e-24
6.39509e-25
1.58154e-24
7.10513e-25
1.50048e-24
7.76202e-25
1.41315e-24
8.35929e-25
1.32025e-24
8.89039e-25
1.22255e-24
9.34859e-25
1.12089e-24
9.72695e-25
1.01621e-24
1.00182e-24
9.09517e-25
1.02149e-24
8.01936e-25
1.03089e-24
6.94685e-25
1.02916e-24
5.89105e-25
1.01535e-24
4.86674e-25
9.88408e-25
3.88993e-25
9.47173e-25
2.97793e-25
8.90309e-25
2.15015e-25
8.16231e-25
1.42726e-25
7.23107e-25
8.2993e-26
6.08791e-25
3.80083e-26
4.70721e-25
9.83825e-27
3.05841e-25
1.15633e-25
8.40064e-27
-1.23892e-25
3.24205e-26
-3.29578e-25
7.09085e-26
-5.08761e-25
1.2217e-25
-6.59587e-25
1.84441e-25
-7.84908e-25
2.55921e-25
-8.87232e-25
3.34857e-25
-9.68792e-25
4.19595e-25
-1.03152e-24
5.08596e-25
-1.07707e-24
6.00439e-25
-1.10691e-24
6.93827e-25
-1.12234e-24
7.87564e-25
-1.1245e-24
8.80568e-25
-1.11444e-24
9.71853e-25
-1.09313e-24
1.06052e-24
-1.06145e-24
1.14574e-24
-1.02024e-24
1.22677e-24
-9.70305e-25
1.30295e-24
-9.12397e-25
1.37366e-24
-8.47258e-25
1.43834e-24
-7.75607e-25
1.49653e-24
-6.98148e-25
1.54779e-24
-6.1557e-25
1.59173e-24
-5.28555e-25
1.62806e-24
-4.37771e-25
1.65651e-24
-3.43877e-25
1.67692e-24
-2.47521e-25
1.68919e-24
-1.49368e-25
1.69329e-24
-5.01135e-26
1.68918e-24
4.95131e-26
1.6769e-24
1.48775e-25
1.65648e-24
2.46942e-25
1.62802e-24
3.43318e-25
1.59168e-24
4.37239e-25
1.54773e-24
5.28055e-25
1.49646e-24
6.15108e-25
1.43827e-24
6.97729e-25
1.37357e-24
7.75237e-25
1.30287e-24
8.46943e-25
1.22669e-24
9.12141e-25
1.14565e-24
9.70113e-25
1.06043e-24
1.02012e-24
9.71764e-25
1.0614e-24
8.80483e-25
1.09315e-24
7.87483e-25
1.11454e-24
6.93749e-25
1.12467e-24
6.00369e-25
1.12259e-24
5.08537e-25
1.10723e-24
4.1954e-25
1.07746e-24
3.34803e-25
1.03197e-24
2.55886e-25
9.69283e-25
1.8442e-25
8.87754e-25
1.22129e-25
7.85459e-25
7.08763e-26
6.60105e-25
3.24314e-26
5.09199e-25
8.41374e-27
3.29923e-25
1.24049e-25
7.00105e-27
-1.30916e-25
2.70964e-26
-3.4972e-25
5.93349e-26
-5.41047e-25
1.02381e-25
-7.02683e-25
1.54797e-25
-8.37374e-25
2.15096e-25
-9.47579e-25
2.81819e-25
-1.03556e-24
3.5357e-25
-1.10331e-24
4.2903e-25
-1.15257e-24
5.06984e-25
-1.1849e-24
5.8632e-25
-1.20171e-24
6.66003e-25
-1.20421e-24
7.45092e-25
-1.19356e-24
8.22745e-25
-1.17081e-24
8.98185e-25
-1.13691e-24
9.70704e-25
-1.09278e-24
1.03966e-24
-1.03928e-24
1.10448e-24
-9.77233e-25
1.16465e-24
-9.07434e-25
1.21968e-24
-8.30656e-25
1.26918e-24
-7.47655e-25
1.31278e-24
-6.59171e-25
1.35015e-24
-5.65935e-25
1.38105e-24
-4.68667e-25
1.40525e-24
-3.68081e-25
1.42262e-24
-2.64887e-25
1.43306e-24
-1.59807e-25
1.43654e-24
-5.35817e-26
1.43303e-24
5.30299e-26
1.42255e-24
1.59262e-25
1.40515e-24
2.64355e-25
1.38092e-24
3.67567e-25
1.34999e-24
4.68178e-25
1.31259e-24
5.65476e-25
1.26897e-24
6.58747e-25
1.21945e-24
7.47271e-25
1.16439e-24
8.30319e-25
1.10421e-24
9.07147e-25
1.03938e-24
9.77002e-25
9.70412e-25
1.03911e-24
8.97888e-25
1.09268e-24
8.22448e-25
1.13687e-24
7.44798e-25
1.17084e-24
6.65717e-25
1.19366e-24
5.86048e-25
1.20438e-24
5.06729e-25
1.20195e-24
4.28793e-25
1.18521e-24
3.53358e-25
1.15294e-24
2.8164e-25
1.10373e-24
2.14939e-25
1.03603e-24
1.54665e-25
9.48075e-25
1.02302e-25
8.37864e-25
5.92866e-26
7.03161e-25
2.70732e-26
5.41484e-25
6.98553e-27
3.50026e-25
1.31037e-25
5.66845e-27
-1.36592e-25
2.1961e-26
-3.6605e-25
4.81329e-26
-5.67255e-25
8.31441e-26
-7.3773e-25
1.25848e-25
-8.80114e-25
1.75061e-25
-9.96827e-25
2.29606e-25
-1.09014e-24
2.88341e-25
-1.16208e-24
3.50184e-25
-1.21445e-24
4.1413e-25
-1.24888e-24
4.79259e-25
-1.26687e-24
5.44706e-25
-1.26969e-24
6.09688e-25
-1.25856e-24
6.73513e-25
-1.23465e-24
7.35531e-25
-1.19895e-24
7.95152e-25
-1.15242e-24
8.51849e-25
-1.09599e-24
9.05142e-25
-1.03054e-24
9.54603e-25
-9.56904e-25
9.99847e-25
-8.75907e-25
1.04053e-24
-7.88346e-25
1.07636e-24
-6.95004e-25
1.10708e-24
-5.96653e-25
1.13247e-24
-4.94057e-25
1.15236e-24
-3.87973e-25
1.16664e-24
-2.79162e-25
1.17522e-24
-1.68386e-25
1.17807e-24
-5.64241e-26
1.17517e-24
5.5937e-26
1.16653e-24
1.67905e-25
1.15221e-24
2.78692e-25
1.13226e-24
3.87521e-25
1.10683e-24
4.93626e-25
1.07607e-24
5.96249e-25
1.0402e-24
6.94632e-25
9.99481e-25
7.8801e-25
9.54206e-25
8.75612e-25
9.04718e-25
9.56655e-25
8.51404e-25
1.03034e-24
7.94692e-25
1.09584e-24
7.35062e-25
1.15233e-24
6.73043e-25
1.19892e-24
6.09223e-25
1.23468e-24
5.44253e-25
1.25865e-24
4.78824e-25
1.26984e-24
4.1372e-25
1.26709e-24
3.4981e-25
1.24915e-24
2.88006e-25
1.21478e-24
2.29312e-25
1.16246e-24
1.7482e-25
1.09056e-24
1.25665e-25
9.97263e-25
8.30031e-26
8.80563e-25
4.80466e-26
7.38156e-25
2.19279e-26
5.6761e-25
5.67509e-27
3.66325e-25
1.36713e-25
4.37483e-27
-1.40982e-25
1.69696e-26
-3.78666e-25
3.72148e-26
-5.87522e-25
6.433e-26
-7.64867e-25
9.74466e-26
-9.13253e-25
1.35663e-25
-1.03507e-24
1.7807e-25
-1.13257e-24
2.23783e-25
-1.20781e-24
2.71959e-25
-1.26264e-24
3.2181e-25
-1.29875e-24
3.72609e-25
-1.31769e-24
4.23663e-25
-1.32076e-24
4.74389e-25
-1.3093e-24
5.24225e-25
-1.2845e-24
5.72657e-25
-1.24739e-24
6.19219e-25
-1.19899e-24
6.63496e-25
-1.14028e-24
7.05115e-25
-1.07216e-24
7.43739e-25
-9.95533e-25
7.79067e-25
-9.11239e-25
8.10834e-25
-8.20115e-25
8.38805e-25
-7.22977e-25
8.62783e-25
-6.20631e-25
8.82601e-25
-5.13874e-25
8.9813e-25
-4.035e-25
9.09274e-25
-2.90302e-25
9.15969e-25
-1.75077e-25
9.18182e-25
-5.86315e-26
9.15901e-25
5.82239e-26
9.09139e-25
1.74674e-25
8.97931e-25
2.89908e-25
8.8234e-25
4.03121e-25
8.62462e-25
5.13513e-25
8.38428e-25
6.20293e-25
8.10405e-25
7.22667e-25
7.78593e-25
8.19836e-25
7.43224e-25
9.10995e-25
7.04565e-25
9.95328e-25
6.62919e-25
1.072e-24
6.18622e-25
1.14016e-24
5.72049e-25
1.19892e-24
5.23614e-25
1.24737e-24
4.73784e-25
1.28453e-24
4.23073e-25
1.30938e-24
3.72045e-25
1.32089e-24
3.2128e-25
1.31787e-24
2.71471e-25
1.29898e-24
2.23347e-25
1.26292e-24
1.77695e-25
1.20813e-24
1.35353e-25
1.13292e-24
9.71998e-26
1.03544e-24
6.4158e-26
9.13625e-25
3.71117e-26
7.65219e-25
1.69261e-26
5.87846e-25
4.35824e-27
3.78889e-25
1.41072e-25
3.115e-27
-1.44096e-25
1.20809e-26
-3.87645e-25
2.65044e-26
-6.01956e-25
4.58337e-26
-7.84207e-25
6.94604e-26
-9.3689e-25
9.67471e-26
-1.06236e-24
1.27052e-25
-1.16289e-24
1.59747e-25
-1.24052e-24
1.94227e-25
-1.29713e-24
2.29908e-25
-1.33444e-24
2.66295e-25
-1.35408e-24
3.02859e-25
-1.35733e-24
3.39208e-25
-1.34566e-24
3.74927e-25
-1.32023e-24
4.0964e-25
-1.28211e-24
4.4301e-25
-1.23236e-24
4.74742e-25
-1.17201e-24
5.04568e-25
-1.10199e-24
5.32247e-25
-1.02321e-24
5.57561e-25
-9.36554e-25
5.80321e-25
-8.42875e-25
6.0036e-25
-7.43015e-25
6.17535e-25
-6.37805e-25
6.31729e-25
-5.28066e-25
6.42848e-25
-4.14616e-25
6.50823e-25
-2.98274e-25
6.5561e-25
-1.7986e-25
6.57182e-25
-6.0199e-26
6.55531e-25
5.98796e-26
6.50666e-25
1.79545e-25
6.42613e-25
2.97967e-25
6.3142e-25
4.1432e-25
6.17156e-25
5.27784e-25
5.99916e-25
6.37541e-25
5.79816e-25
7.42774e-25
5.57001e-25
8.42659e-25
5.31638e-25
9.36366e-25
5.0392e-25
1.02306e-24
4.74061e-25
1.10187e-24
4.42306e-25
1.17192e-24
4.08923e-25
1.23231e-24
3.74206e-25
1.2821e-24
3.38493e-25
1.32025e-24
3.02163e-25
1.34572e-24
2.65629e-25
1.35744e-24
2.29281e-25
1.35423e-24
1.93653e-25
1.33462e-24
1.59237e-25
1.29735e-24
1.26608e-25
1.24077e-24
9.6378e-26
1.16316e-24
6.91791e-26
1.06265e-24
4.56353e-26
9.37183e-25
2.63799e-26
7.84491e-25
1.20162e-26
6.02193e-25
3.10398e-27
3.87829e-25
1.44177e-25
1.87136e-27
-1.45974e-25
7.26543e-27
-3.93035e-25
1.59361e-26
-6.10624e-25
2.75542e-26
-7.95822e-25
4.17575e-26
-9.51092e-25
5.81639e-26
-1.07877e-24
7.63865e-26
-1.18111e-24
9.60494e-26
-1.26018e-24
1.16832e-25
-1.31791e-24
1.38386e-25
-1.35599e-24
1.60199e-25
-1.37589e-24
1.82185e-25
-1.37931e-24
2.04129e-25
-1.3676e-24
2.25664e-25
-1.34176e-24
2.46538e-25
-1.30298e-24
2.6661e-25
-1.25243e-24
2.85702e-25
-1.1911e-24
3.03648e-25
-1.11993e-24
3.20302e-25
-1.03986e-24
3.35531e-25
-9.5178e-25
3.4922e-25
-8.56561e-25
3.6127e-25
-7.55061e-25
3.71595e-25
-6.48125e-25
3.80123e-25
-5.3659e-25
3.868e-25
-4.2129e-25
3.91585e-25
-3.03055e-25
3.94448e-25
-1.82719e-25
3.95374e-25
-6.11216e-26
3.9436e-25
6.08983e-26
3.91409e-25
1.82499e-25
3.8654e-25
3.0284e-25
3.79781e-25
4.21083e-25
3.71174e-25
5.36395e-25
3.60776e-25
6.47943e-25
3.48659e-25
7.54895e-25
3.34908e-25
8.56412e-25
3.19626e-25
9.51652e-25
3.02927e-25
1.03976e-24
2.84945e-25
1.11985e-24
2.65827e-25
1.19104e-24
2.4574e-25
1.2524e-24
2.24862e-25
1.30298e-24
2.03334e-25
1.34178e-24
1.81409e-25
1.36765e-24
1.59455e-25
1.37939e-24
1.37691e-25
1.376e-24
1.16194e-25
1.35612e-24
9.5477e-26
1.31807e-24
7.58959e-26
1.26036e-24
5.77648e-26
1.1813e-24
4.14403e-26
1.07898e-24
2.73219e-26
9.51299e-25
1.57931e-26
7.96014e-25
7.20873e-27
6.10806e-25
1.85249e-27
3.93164e-25
1.46029e-25
6.43469e-28
-1.46609e-25
2.4912e-27
-3.9487e-25
5.44949e-27
-6.13567e-25
9.40149e-27
-7.9976e-25
1.42204e-26
-9.55897e-25
1.9776e-26
-1.08431e-24
2.59339e-26
-1.18725e-24
3.25487e-26
-1.26679e-24
3.94732e-26
-1.32483e-24
4.66579e-26
-1.36317e-24
5.41262e-26
-1.38335e-24
6.18752e-26
-1.38705e-24
6.9297e-26
-1.37501e-24
7.638e-26
-1.34883e-24
8.33326e-26
-1.30993e-24
9.00619e-26
-1.25916e-24
9.64653e-26
-1.1975e-24
1.02483e-25
-1.12594e-24
1.08064e-25
-1.04544e-24
1.13165e-25
-9.56874e-25
1.17745e-25
-8.61135e-25
1.21772e-25
-7.59082e-25
1.25217e-25
-6.51564e-25
1.28056e-25
-5.39425e-25
1.30272e-25
-4.235e-25
1.31849e-25
-3.04628e-25
1.3278e-25
-1.83647e-25
1.3306e-25
-6.13979e-26
1.32687e-25
6.12744e-26
1.31663e-25
1.83525e-25
1.29995e-25
3.0451e-25
1.27692e-25
4.23387e-25
1.24769e-25
5.39318e-25
1.21246e-25
6.51466e-25
1.17148e-25
7.58993e-25
1.12502e-25
8.61057e-25
1.07345e-25
9.56808e-25
1.01715e-25
1.04538e-24
9.56593e-26
1.12591e-24
8.92281e-26
1.19747e-24
8.24829e-26
1.25914e-24
7.55261e-26
1.30993e-24
6.84524e-26
1.34885e-24
6.10519e-26
1.37505e-24
5.33359e-26
1.3871e-24
4.59148e-26
1.38341e-24
3.87922e-26
1.36324e-24
3.19446e-26
1.32491e-24
2.541e-26
1.26688e-24
1.93339e-26
1.18736e-24
1.38821e-26
1.08442e-24
9.16812e-27
9.56004e-25
5.29884e-27
7.99878e-25
2.39984e-27
6.13665e-25
6.17269e-28
3.94956e-25
1.46645e-25
-5.83272e-28
-1.46024e-25
-2.26856e-27
-3.93155e-25
-5.01102e-27
-6.10797e-25
-8.71217e-27
-7.96032e-25
-1.32602e-26
-9.51323e-25
-1.8536e-26
-1.07901e-24
-2.44141e-26
-1.18135e-24
-3.07551e-26
-1.26042e-24
-3.74164e-26
-1.31814e-24
-4.43497e-26
-1.35621e-24
-5.15806e-26
-1.3761e-24
-5.91097e-26
-1.3795e-24
-6.63281e-26
-1.36778e-24
-7.32285e-26
-1.34192e-24
-8.00199e-26
-1.30312e-24
-8.66083e-26
-1.25255e-24
-9.28918e-26
-1.1912e-24
-9.88095e-26
-1.12002e-24
-1.04312e-25
-1.03992e-24
-1.09354e-25
-9.51822e-25
-1.13896e-25
-8.56584e-25
-1.17903e-25
-7.55066e-25
-1.21348e-25
-6.48112e-25
-1.24207e-25
-5.3656e-25
-1.26459e-25
-4.21242e-25
-1.28092e-25
-3.02991e-25
-1.29095e-25
-1.8264e-25
-1.29462e-25
-6.10283e-26
-1.29191e-25
6.10052e-26
-1.28283e-25
1.82618e-25
-1.26744e-25
3.0297e-25
-1.24581e-25
4.21223e-25
-1.21808e-25
5.36543e-25
-1.18443e-25
6.48098e-25
-1.1451e-25
7.55055e-25
-1.10035e-25
8.56577e-25
-1.05052e-25
9.51818e-25
-9.95988e-26
1.03992e-24
-9.37205e-26
1.12002e-24
-8.74658e-26
1.19121e-24
-8.08945e-26
1.25256e-24
-7.41078e-26
1.30313e-24
-6.71991e-26
1.34193e-24
-5.99577e-26
1.36779e-24
-5.23913e-26
1.37952e-24
-4.51104e-26
1.37611e-24
-3.81165e-26
1.35622e-24
-3.13872e-26
1.31816e-24
-2.49592e-26
1.26043e-24
-1.89779e-26
1.18136e-24
-1.36132e-26
1.07903e-24
-8.9816e-27
9.51348e-25
-5.17911e-27
7.96047e-25
-2.33868e-27
6.1083e-25
-6.03876e-28
3.93182e-25
1.4604e-25
-1.81363e-27
-1.44194e-25
-7.04847e-27
-3.87882e-25
-1.55072e-26
-6.02299e-25
-2.68817e-26
-7.84618e-25
-4.08224e-26
-9.37345e-25
-5.69587e-26
-1.06284e-24
-7.49102e-26
-1.16337e-24
-9.43069e-26
-1.24099e-24
-1.14833e-25
-1.29759e-24
-1.36143e-25
-1.33487e-24
-1.57724e-25
-1.35449e-24
-1.79498e-25
-1.3577e-24
-2.01251e-25
-1.346e-24
-2.22613e-25
-1.32053e-24
-2.43333e-25
-1.28238e-24
-2.63269e-25
-1.2326e-24
-2.82245e-25
-1.17221e-24
-3.00095e-25
-1.10215e-24
-3.16672e-25
-1.02333e-24
-3.31844e-25
-9.36636e-25
-3.45497e-25
-8.42919e-25
-3.57528e-25
-7.43023e-25
-3.67853e-25
-6.37777e-25
-3.764e-25
-5.28004e-25
-3.83113e-25
-4.14522e-25
-3.8795e-25
-2.98149e-25
-3.90882e-25
-1.79704e-25
-3.91893e-25
-6.00149e-26
-3.90978e-25
6.00907e-26
-3.8814e-25
1.79779e-25
-3.83395e-25
2.98223e-25
-3.76771e-25
4.14595e-25
-3.68309e-25
5.28076e-25
-3.58064e-25
6.37846e-25
-3.46107e-25
7.43089e-25
-3.32521e-25
8.4298e-25
-3.17408e-25
9.36693e-25
-3.00881e-25
1.02338e-24
-2.83071e-25
1.10219e-24
-2.64123e-25
1.17224e-24
-2.44205e-25
1.23262e-24
-2.2349e-25
1.2824e-24
-2.02121e-25
1.32054e-24
-1.80345e-25
1.34599e-24
-1.58537e-25
1.35768e-24
-1.3691e-25
1.35446e-24
-1.1554e-25
1.33482e-24
-9.4935e-26
1.29752e-24
-7.54591e-26
1.24092e-24
-5.74288e-26
1.1633e-24
-4.11853e-26
1.06275e-24
-2.71309e-26
9.37262e-25
-1.56748e-26
7.84563e-25
-7.15909e-27
6.02253e-25
-1.84952e-27
3.87863e-25
1.44188e-25
-3.0575e-27
-1.41126e-25
-1.18718e-26
-3.79013e-25
-2.60958e-26
-5.88022e-25
-4.5196e-26
-7.65467e-25
-6.85769e-26
-9.13914e-25
-9.56115e-26
-1.03576e-24
-1.25664e-25
-1.13327e-24
-1.58114e-25
-1.2085e-24
-1.92354e-25
-1.2633e-24
-2.2781e-25
-1.29938e-24
-2.63987e-25
-1.31828e-24
-3.00355e-25
-1.3213e-24
-3.36524e-25
-1.3098e-24
-3.72082e-25
-1.28494e-24
-4.06651e-25
-1.24778e-24
-4.39896e-25
-1.19933e-24
-4.71519e-25
-1.14056e-24
-5.01256e-25
-1.07239e-24
-5.28863e-25
-9.95705e-25
-5.54125e-25
-9.11356e-25
-5.76849e-25
-8.20179e-25
-5.96871e-25
-7.22987e-25
-6.14045e-25
-6.20591e-25
-6.28256e-25
-5.13783e-25
-6.39408e-25
-4.03362e-25
-6.47435e-25
-2.90116e-25
-6.52285e-25
-1.7485e-25
-6.53936e-25
-5.83616e-26
-6.52376e-25
5.85302e-26
-6.47617e-25
1.75017e-25
-6.3968e-25
2.90281e-25
-6.28614e-25
4.03523e-25
-6.14484e-25
5.13937e-25
-5.97387e-25
6.20738e-25
-5.77436e-25
7.23125e-25
-5.54777e-25
8.20306e-25
-5.29571e-25
9.1147e-25
-5.02013e-25
9.95805e-25
-4.72314e-25
1.07247e-24
-4.4072e-25
1.14062e-24
-4.07493e-25
1.19937e-24
-3.7293e-25
1.2478e-24
-3.37365e-25
1.28494e-24
-3.01179e-25
1.30977e-24
-2.64779e-25
1.32125e-24
-2.28556e-25
1.3182e-24
-1.93044e-25
1.29927e-24
-1.58742e-25
1.26318e-24
-1.26209e-25
1.20835e-24
-9.60521e-26
1.1331e-24
-6.89381e-26
1.03559e-24
-4.54819e-26
9.13758e-25
-2.62784e-26
7.65308e-25
-1.19503e-26
5.87905e-25
-3.08384e-27
3.7894e-25
1.41102e-25
-4.32443e-27
-1.36778e-25
-1.67747e-26
-3.66499e-25
-3.68377e-26
-5.67894e-25
-6.37455e-26
-7.38496e-25
-9.66436e-26
-8.80955e-25
-1.34635e-25
-9.97706e-25
-1.76819e-25
-1.09103e-24
-2.22316e-25
-1.16295e-24
-2.70282e-25
-1.21529e-24
-3.19934e-25
-1.24968e-24
-3.70548e-25
-1.26762e-24
-4.21429e-25
-1.27038e-24
-4.71997e-25
-1.25919e-24
-5.21689e-25
-1.23521e-24
-5.69993e-25
-1.19944e-24
-6.16443e-25
-1.15284e-24
-6.60624e-25
-1.09635e-24
-7.02163e-25
-1.03082e-24
-7.40724e-25
-9.5712e-25
-7.76004e-25
-8.76053e-25
-8.07739e-25
-7.88425e-25
-8.35695e-25
-6.95015e-25
-8.59673e-25
-5.966e-25
-8.79506e-25
-4.93938e-25
-8.95064e-25
-3.87795e-25
-9.0625e-25
-2.78923e-25
-9.13003e-25
-1.68093e-25
-9.15286e-25
-5.60767e-26
-9.13088e-25
5.63309e-26
-9.0642e-25
1.68345e-25
-8.95315e-25
2.7917e-25
-8.79836e-25
3.88035e-25
-8.60079e-25
4.94168e-25
-8.36173e-25
5.96818e-25
-8.08283e-25
6.95218e-25
-7.76608e-25
7.88612e-25
-7.4138e-25
8.7622e-25
-7.02865e-25
9.57266e-25
-6.61363e-25
1.03094e-24
-6.1721e-25
1.09644e-24
-5.70777e-25
1.15291e-24
-5.22481e-25
1.19947e-24
-4.72784e-25
1.23521e-24
-4.22201e-25
1.25915e-24
-3.71292e-25
1.27029e-24
-3.20643e-25
1.2675e-24
-2.70939e-25
1.24952e-24
-2.22902e-25
1.21509e-24
-1.77336e-25
1.16273e-24
-1.35093e-25
1.0908e-24
-9.70001e-26
9.97445e-25
-6.39881e-26
8.80691e-25
-3.70113e-26
7.38279e-25
-1.69017e-26
5.67712e-25
-4.36937e-27
3.66377e-25
1.36729e-25
-5.61919e-27
-1.31139e-25
-2.17851e-26
-3.50254e-25
-4.77976e-26
-5.41804e-25
-8.26333e-26
-7.03585e-25
-1.25154e-25
-8.38361e-25
-1.74183e-25
-9.48608e-25
-2.28544e-25
-1.0366e-24
-2.871e-25
-1.10433e-24
-3.48771e-25
-1.15355e-24
-4.12552e-25
-1.18584e-24
-4.7753e-25
-1.20259e-24
-5.42833e-25
-1.20502e-24
-6.07684e-25
-1.19429e-24
-6.71388e-25
-1.17147e-24
-7.33301e-25
-1.13749e-24
-7.92827e-25
-1.09328e-24
-8.49446e-25
-1.03969e-24
-9.0267e-25
-9.77567e-25
-9.5208e-25
-9.07681e-25
-9.97281e-25
-8.30827e-25
-1.03794e-24
-7.47741e-25
-1.07375e-24
-6.59184e-25
-1.10447e-24
-5.65865e-25
-1.12987e-24
-4.68528e-25
-1.14979e-24
-3.67863e-25
-1.1641e-24
-2.64607e-25
-1.17274e-24
-1.59454e-25
-1.17564e-24
-5.31742e-26
-1.17281e-24
5.35014e-26
-1.16425e-24
1.59778e-25
-1.15001e-24
2.64925e-25
-1.13016e-24
3.68171e-25
-1.10483e-24
4.68824e-25
-1.07418e-24
5.66144e-25
-1.03842e-24
6.59445e-25
-9.97813e-25
7.47978e-25
-9.52661e-25
8.31041e-25
-9.03291e-25
9.07864e-25
-8.50102e-25
9.77719e-25
-7.93507e-25
1.03981e-24
-7.34001e-25
1.09336e-24
-6.72094e-25
1.13752e-24
-6.08389e-25
1.17146e-24
-5.43525e-25
1.19423e-24
-4.78204e-25
1.20492e-24
-4.13188e-25
1.20243e-24
-3.49366e-25
1.18564e-24
-2.87652e-25
1.15331e-24
-2.29033e-25
1.10405e-24
-1.74576e-25
1.03627e-24
-1.25485e-25
9.48286e-25
-8.29192e-26
8.38055e-25
-4.79845e-26
7.03271e-25
-2.18647e-26
5.41547e-25
-5.6469e-27
3.50087e-25
1.31079e-25
-6.95966e-27
-1.24149e-25
-2.69459e-26
-3.30179e-25
-5.90565e-26
-5.09605e-25
-1.01968e-25
-6.60587e-25
-1.54246e-25
-7.86e-25
-2.14409e-25
-8.88363e-25
-2.80998e-25
-9.69932e-25
-3.52617e-25
-1.03264e-24
-4.27951e-25
-1.07815e-24
-5.05786e-25
-1.10794e-24
-5.85007e-25
-1.1233e-24
-6.64584e-25
-1.12539e-24
-7.43573e-25
-1.11525e-24
-8.21138e-25
-1.09385e-24
-8.96496e-25
-1.06208e-24
-9.68945e-25
-1.02079e-24
-1.03784e-24
-9.70758e-25
-1.10261e-24
-9.12759e-25
-1.16273e-24
-8.4753e-25
-1.21774e-24
-7.7579e-25
-1.26721e-24
-6.98241e-25
-1.3108e-24
-6.15577e-25
-1.34817e-24
-5.28476e-25
-1.37907e-24
-4.3761e-25
-1.40329e-24
-3.43633e-25
-1.42069e-24
-2.47203e-25
-1.43117e-24
-1.48974e-25
-1.43469e-24
-4.96533e-26
-1.43123e-24
5.00389e-26
-1.42081e-24
1.49355e-25
-1.40348e-24
2.47577e-25
-1.37931e-24
3.43995e-25
-1.34847e-24
4.37958e-25
-1.31115e-24
5.28803e-25
-1.26761e-24
6.15884e-25
-1.21818e-24
6.98519e-25
-1.16321e-24
7.7604e-25
-1.10313e-24
8.47743e-25
-1.03838e-24
9.12937e-25
-9.69511e-25
9.70891e-25
-8.97077e-25
1.02088e-24
-8.21728e-25
1.06212e-24
-7.44166e-25
1.09384e-24
-6.65169e-25
1.11518e-24
-5.85575e-25
1.12526e-24
-5.06334e-25
1.12312e-24
-4.2847e-25
1.10771e-24
-3.53083e-25
1.07786e-24
-2.81416e-25
1.03231e-24
-2.14799e-25
9.69579e-25
-1.54567e-25
8.87976e-25
-1.02178e-25
7.85589e-25
-5.92177e-26
6.60237e-25
-2.70858e-26
5.09314e-25
-7.02192e-27
3.29974e-25
1.24053e-25
-8.35821e-27
-1.15763e-25
-3.23044e-26
-3.06132e-25
-7.06984e-26
-4.71112e-25
-1.21881e-25
-6.09308e-25
-1.84074e-25
-7.23713e-25
-2.55475e-25
-8.16872e-25
-3.34333e-25
-8.90987e-25
-4.18999e-25
-9.47888e-25
-5.07925e-25
-9.89144e-25
-5.99698e-25
-1.01609e-24
-6.93016e-25
-1.02991e-24
-7.86692e-25
-1.03164e-24
-8.79633e-25
-1.02224e-24
-9.70865e-25
-1.00256e-24
-1.05948e-24
-9.7342e-25
-1.14466e-24
-9.35557e-25
-1.22565e-24
-8.89721e-25
-1.3018e-24
-8.36572e-25
-1.37247e-24
-7.76821e-25
-1.43714e-24
-7.11083e-25
-1.49531e-24
-6.40048e-25
-1.54656e-24
-5.64301e-25
-1.5905e-24
-4.84519e-25
-1.62684e-24
-4.01257e-25
-1.65529e-24
-3.15169e-25
-1.67572e-24
-2.26763e-25
-1.688e-24
-1.36689e-25
-1.69213e-24
-4.55275e-26
-1.68805e-24
4.59526e-26
-1.67581e-24
1.37111e-25
-1.65542e-24
2.27173e-25
-1.62701e-24
3.1557e-25
-1.59071e-24
4.01637e-25
-1.54682e-24
4.84883e-25
-1.4956e-24
5.64634e-25
-1.43747e-24
6.40358e-25
-1.37282e-24
7.11352e-25
-1.30218e-24
7.7706e-25
-1.22605e-24
8.36762e-25
-1.14508e-24
8.89873e-25
-1.0599e-24
9.3565e-25
-9.7131e-25
9.73468e-25
-8.80075e-25
1.00254e-24
-7.87138e-25
1.02217e-24
-6.93451e-25
1.03151e-24
-6.00123e-25
1.02972e-24
-5.08321e-25
1.01583e-24
-4.19386e-25
9.8884e-25
-3.34688e-25
9.47524e-25
-2.55766e-25
8.90571e-25
-1.84322e-25
8.16444e-25
-1.22125e-25
7.23302e-25
-7.08767e-26
6.08896e-25
-3.23791e-26
4.70749e-25
-8.37425e-27
3.05884e-25
1.15674e-25
-9.82343e-27
-1.05903e-25
-3.79259e-26
-2.7792e-25
-8.28409e-26
-4.26088e-25
-1.42525e-25
-5.49517e-25
-2.14806e-25
-6.51329e-25
-2.97547e-25
-7.34032e-25
-3.88702e-25
-7.99736e-25
-4.8636e-25
-8.50139e-25
-5.88772e-25
-8.86645e-25
-6.94325e-25
-9.10456e-25
-8.01557e-25
-9.22604e-25
-9.09117e-25
-9.2401e-25
-1.0158e-24
-9.15496e-25
-1.12046e-24
-8.9783e-25
-1.22211e-24
-8.71711e-25
-1.3198e-24
-8.37816e-25
-1.4127e-24
-7.96774e-25
-1.50001e-24