/*--------------------------------*- C++ -*----------------------------------*\
| =========                 |                                                 |
| \\      /  F ield         | OpenFOAM: The Open Source CFD Toolbox           |
|  \\    /   O peration     | Version:  5.0                                   |
|   \\  /    A nd           | Web:      www.OpenFOAM.org                      |
|    \\/     M anipulation  |                                                 |
\*---------------------------------------------------------------------------*/
FoamFile
{
    version     2.0;
    format      ascii;
    class       surfaceScalarField;
    location    "25";
    object      phi;
}
// * * * * * * * * * * * * * * * * * * * * * * * * * * * * * * * * * * * * * //

dimensions      [0 3 -1 0 0 0 0];

internalField   nonuniform List<scalar> 
3052
(
8.41901e-17
-1.47334e-16
4.38616e-16
-3.53398e-16
1.26408e-15
-8.63238e-16
2.07782e-15
-8.61042e-16
2.88276e-15
-8.39669e-16
3.73662e-15
-8.78016e-16
4.61542e-15
-8.9737e-16
5.48951e-15
-8.89369e-16
6.3336e-15
-8.56906e-16
7.12579e-15
-8.01752e-16
7.84534e-15
-7.26286e-16
8.47871e-15
-6.36466e-16
9.02025e-15
-5.4088e-16
9.46919e-15
-4.45413e-16
9.81597e-15
-3.42901e-16
1.00574e-14
-2.3784e-16
1.02076e-14
-1.47563e-16
1.0284e-14
-7.49492e-17
1.02996e-14
-1.57241e-17
1.02713e-14
2.7456e-17
1.02106e-14
5.89241e-17
1.01275e-14
8.12325e-17
1.00267e-14
9.85605e-17
9.91159e-15
1.12943e-16
9.78405e-15
1.25275e-16
9.64961e-15
1.32859e-16
9.50975e-15
1.38469e-16
9.36693e-15
1.42319e-16
9.2166e-15
1.49739e-16
9.05583e-15
1.60896e-16
8.88028e-15
1.76026e-16
8.69129e-15
1.90767e-16
8.48728e-15
2.06523e-16
8.26817e-15
2.22633e-16
8.03133e-15
2.40797e-16
7.77771e-15
2.58221e-16
7.50484e-15
2.7755e-16
7.21365e-15
2.96157e-16
6.90244e-15
3.16056e-16
6.56838e-15
3.38836e-16
6.2072e-15
3.65517e-16
5.82152e-15
3.8992e-16
5.41046e-15
4.15047e-16
4.9754e-15
4.39202e-16
4.51835e-15
4.61351e-16
4.04367e-15
4.79431e-16
3.55467e-15
4.94428e-16
3.05411e-15
5.06733e-16
2.54525e-15
5.1503e-16
2.03926e-15
5.11299e-16
1.55569e-15
4.89178e-16
1.11231e-15
4.50007e-16
7.21046e-16
4.02466e-16
3.67586e-16
3.63561e-16
1.15571e-16
2.5784e-16
1.16013e-16
3.71503e-16
-5.17831e-16
6.8198e-16
-7.96805e-16
1.02645e-15
-1.35181e-15
1.58056e-15
-1.51558e-15
2.28904e-15
-1.61789e-15
3.03567e-15
-1.67571e-15
3.78788e-15
-1.69012e-15
4.52434e-15
-1.65949e-15
5.22557e-15
-1.58406e-15
5.87441e-15
-1.46934e-15
6.46039e-15
-1.32177e-15
6.97527e-15
-1.15158e-15
7.41107e-15
-9.6896e-16
7.76219e-15
-7.85479e-16
8.03648e-15
-6.04464e-16
8.24295e-15
-4.32483e-16
8.38589e-15
-2.80343e-16
8.47107e-15
-1.53016e-16
8.50877e-15
-4.84576e-17
8.50535e-15
3.31722e-17
8.46755e-15
9.78352e-17
8.40326e-15
1.44783e-16
8.3216e-15
1.7921e-16
8.22634e-15
2.06124e-16
8.12088e-15
2.29336e-16
8.00455e-15
2.47441e-16
7.8796e-15
2.62849e-16
7.74488e-15
2.75883e-16
7.60328e-15
2.91249e-16
7.45444e-15
3.09884e-16
7.29953e-15
3.33323e-16
7.13537e-15
3.58475e-16
6.96126e-15
3.86336e-16
6.77518e-15
4.15173e-16
6.57733e-15
4.46312e-16
6.36517e-15
4.77819e-16
6.13897e-15
5.116e-16
5.89605e-15
5.46102e-16
5.63552e-15
5.83136e-16
5.35646e-15
6.22917e-16
5.05942e-15
6.66909e-16
4.74129e-15
7.11073e-16
4.40344e-15
7.55983e-16
4.04634e-15
7.99419e-16
3.67133e-15
8.40285e-16
3.2798e-15
8.75758e-16
2.87604e-15
9.04686e-16
2.4659e-15
9.24603e-16
2.0562e-15
9.33104e-16
1.65208e-15
9.24432e-16
1.25686e-15
8.92845e-16
8.84257e-16
8.4064e-16
5.4455e-16
7.57219e-16
2.8652e-16
6.41084e-16
9.83917e-17
4.51901e-16
2.14801e-16
1.20397e-16
-6.85771e-16
3.41669e-16
-1.08651e-15
6.81175e-16
-1.7322e-15
1.15372e-15
-2.02934e-15
1.70991e-15
-2.21039e-15
2.3075e-15
-2.30458e-15
2.90814e-15
-2.31833e-15
3.49118e-15
-2.26659e-15
4.04402e-15
-2.15703e-15
4.5566e-15
-1.99655e-15
5.02058e-15
-1.79507e-15
5.42965e-15
-1.56506e-15
5.7797e-15
-1.31956e-15
6.06816e-15
-1.07089e-15
6.29747e-15
-8.29028e-16
6.47346e-15
-6.02519e-16
6.59915e-15
-4.00343e-16
6.67816e-15
-2.2677e-16
6.71611e-15
-8.25528e-17
6.7182e-15
3.40556e-17
6.69013e-15
1.27367e-16
6.63731e-15
1.98531e-16
6.56513e-15
2.51138e-16
6.47904e-15
2.91878e-16
6.38275e-15
3.24646e-16
6.27808e-15
3.51512e-16
6.16592e-15
3.74061e-16
6.04685e-15
3.94544e-16
5.92205e-15
4.15463e-16
5.79305e-15
4.39015e-16
5.66043e-15
4.66233e-16
5.52321e-15
4.96948e-16
5.38008e-15
5.30549e-16
5.23014e-15
5.66725e-16
5.0723e-15
6.05408e-16
4.9052e-15
6.46828e-16
4.72727e-15
6.91036e-16
4.53703e-15
7.38204e-16
4.33294e-15
7.88592e-16
4.1146e-15
8.42823e-16
3.88215e-15
9.00539e-16
3.63487e-15
9.60408e-16
3.37253e-15
1.02087e-15
3.0954e-15
1.08001e-15
2.804e-15
1.13525e-15
2.49987e-15
1.18413e-15
2.18639e-15
1.22376e-15
1.86855e-15
1.25084e-15
1.55104e-15
1.26057e-15
1.23678e-15
1.24784e-15
9.32179e-16
1.20977e-15
6.43701e-16
1.13806e-15
3.94882e-16
1.02944e-15
1.92725e-16
8.53263e-16
5.92034e-17
5.98042e-16
2.74966e-16
-3.65597e-17
-6.42796e-16
2.3786e-16
-1.33539e-15
4.98768e-16
-1.99189e-15
8.3353e-16
-2.37691e-15
1.22915e-15
-2.62667e-15
1.65798e-15
-2.75723e-15
2.09723e-15
-2.78186e-15
2.52886e-15
-2.72062e-15
2.94067e-15
-2.58812e-15
3.32327e-15
-2.39547e-15
3.66999e-15
-2.1557e-15
3.97629e-15
-1.88293e-15
4.23976e-15
-1.59203e-15
4.45891e-15
-1.29701e-15
4.63463e-15
-1.0097e-15
4.76915e-15
-7.40721e-16
4.86463e-15
-4.98498e-16
4.92328e-15
-2.87841e-16
4.94864e-15
-1.10111e-16
4.94434e-15
3.59e-17
4.91577e-15
1.53506e-16
4.86636e-15
2.45031e-16
4.79997e-15
3.14732e-16
4.72074e-15
3.68306e-16
4.63286e-15
4.1041e-16
4.53854e-15
4.44156e-16
4.43965e-15
4.72134e-16
4.33688e-15
4.96857e-16
4.23179e-15
5.20909e-16
4.12505e-15
5.46535e-16
4.01765e-15
5.75015e-16
3.90878e-15
6.06809e-16
3.7983e-15
6.42228e-16
3.68476e-15
6.81354e-16
3.56777e-15
7.24395e-16
3.44547e-15
7.71582e-16
3.31709e-15
8.23024e-16
3.18063e-15
8.78912e-16
3.03533e-15
9.39337e-16
2.88041e-15
1.00433e-15
2.7161e-15
1.07339e-15
2.54155e-15
1.14508e-15
2.35675e-15
1.21747e-15
2.16119e-15
1.28824e-15
1.95502e-15
1.35457e-15
1.73908e-15
1.41344e-15
1.5164e-15
1.46118e-15
1.29083e-15
1.49337e-15
1.06567e-15
1.50521e-15
8.43188e-16
1.49153e-15
6.25968e-16
1.44469e-15
4.28625e-16
1.36123e-15
2.56396e-16
1.21798e-15
1.29074e-16
1.00364e-15
4.93255e-17
6.93038e-16
3.24998e-16
-1.89267e-17
-6.1124e-16
1.41093e-16
-1.46149e-15
3.13499e-16
-2.14637e-15
5.28582e-16
-2.59282e-15
7.81523e-16
-2.89097e-15
1.06011e-15
-3.05076e-15
1.35071e-15
-3.08698e-15
1.64022e-15
-3.02317e-15
1.9183e-15
-2.87756e-15
2.17705e-15
-2.6646e-15
2.41082e-15
-2.39915e-15
2.6163e-15
-2.09751e-15
2.79184e-15
-1.77587e-15
2.93673e-15
-1.44913e-15
3.0513e-15
-1.13036e-15
3.13664e-15
-8.3094e-16
3.19366e-15
-5.59421e-16
3.22388e-15
-3.21022e-16
3.22921e-15
-1.17742e-16
3.21235e-15
5.10443e-17
3.17652e-15
1.87741e-16
3.12472e-15
2.95348e-16
3.05977e-15
3.7822e-16
2.98537e-15
4.41579e-16
2.90473e-15
4.90229e-16
2.82064e-15
5.27982e-16
2.73472e-15
5.58046e-16
2.64861e-15
5.83483e-16
2.56333e-15
6.06986e-16
2.48003e-15
6.30925e-16
2.39884e-15
6.56968e-16
2.31978e-15
6.86441e-16
2.2422e-15
7.19925e-16
2.16589e-15
7.57949e-16
2.08994e-15
8.00868e-16
2.01348e-15
8.4923e-16
1.93506e-15
9.03222e-16
1.85357e-15
9.63063e-16
1.76782e-15
1.02878e-15
1.67732e-15
1.09993e-15
1.58167e-15
1.1756e-15
1.4805e-15
1.25437e-15
1.37295e-15
1.33429e-15
1.25848e-15
1.41261e-15
1.13656e-15
1.48627e-15
1.00789e-15
1.5519e-15
8.74597e-16
1.60558e-15
7.3999e-16
1.6418e-15
6.0567e-16
1.65545e-15
4.72301e-16
1.64024e-15
3.44902e-16
1.59002e-15
2.28314e-16
1.4902e-15
1.34179e-16
1.33318e-15
6.05802e-17
1.09126e-15
1.55114e-17
7.45303e-16
3.40937e-16
7.02077e-18
-6.03675e-16
6.58603e-17
-1.49264e-15
1.3569e-16
-2.20408e-15
2.39795e-16
-2.69598e-15
3.68805e-16
-3.02428e-15
5.14175e-16
-3.20151e-15
6.69208e-16
-3.24686e-15
8.26795e-16
-3.1842e-15
9.78352e-16
-3.03196e-15
1.1184e-15
-2.80757e-15
1.24324e-15
-2.52765e-15
1.35072e-15
-2.20929e-15
1.43956e-15
-1.86934e-15
1.50925e-15
-1.52333e-15
1.56006e-15
-1.18504e-15
1.59221e-15
-8.66128e-16
1.60619e-15
-5.75347e-16
1.6026e-15
-3.18356e-16
1.58258e-15
-9.7706e-17
1.54758e-15
8.6579e-17
1.49982e-15
2.36372e-16
1.44138e-15
3.54696e-16
1.37478e-15
4.4578e-16
1.30271e-15
5.1454e-16
1.22804e-15
5.6584e-16
1.15298e-15
6.03865e-16
1.07956e-15
6.3234e-16
1.00917e-15
6.54635e-16
9.43194e-16
6.73724e-16
8.82425e-16
6.92168e-16
8.27394e-16
7.12178e-16
7.78078e-16
7.35267e-16
7.34467e-16
7.62677e-16
6.96038e-16
7.95246e-16
6.6214e-16
8.33682e-16
6.31767e-16
8.78624e-16
6.03879e-16
9.30462e-16
5.77253e-16
9.89373e-16
5.50957e-16
1.05525e-15
5.24172e-16
1.12754e-15
4.96321e-16
1.20513e-15
4.66622e-16
1.28648e-15
4.34412e-16
1.36945e-15
3.98813e-16
1.45121e-15
3.59305e-16
1.52842e-15
3.16465e-16
1.59739e-15
2.71829e-16
1.65402e-15
2.2497e-16
1.69458e-15
1.75963e-16
1.71216e-15
1.29033e-16
1.69561e-15
8.55056e-17
1.63877e-15
5.03495e-17
1.53625e-15
2.14935e-17
1.36658e-15
4.31134e-18
1.11377e-15
-3.41483e-18
7.58822e-16
3.37619e-16
3.80247e-19
-5.98319e-16
-8.73062e-18
-1.47202e-15
-1.93733e-17
-2.18882e-15
-1.56882e-17
-2.70068e-15
-3.43943e-19
-3.04267e-15
2.49228e-17
-3.22928e-15
5.78855e-17
-3.2806e-15
9.26954e-17
-3.21872e-15
1.25415e-16
-3.06418e-15
1.53538e-16
-2.8359e-15
1.74987e-16
-2.55036e-15
1.88574e-16
-2.22513e-15
1.93611e-16
-1.87723e-15
1.89785e-16
-1.52251e-15
1.76982e-16
-1.17502e-15
1.55122e-16
-8.46437e-16
1.24101e-16
-5.45747e-16
8.4045e-17
-2.78878e-16
3.5319e-17
-4.89329e-17
-2.11507e-17
1.43633e-16
-8.40796e-17
3.00169e-16
-1.5184e-16
4.23533e-16
-2.22642e-16
5.17665e-16
-2.94297e-16
5.87329e-16
-3.64659e-16
6.37235e-16
-4.31624e-16
6.7187e-16
-4.93511e-16
6.95142e-16
-5.48759e-16
7.10773e-16
-5.96265e-16
7.21966e-16
-6.35021e-16
7.31573e-16
-6.64543e-16
7.42033e-16
-6.8444e-16
7.55329e-16
-6.94834e-16
7.72988e-16
-6.96069e-16
7.96289e-16
-6.88919e-16
8.26219e-16
-6.74194e-16
8.63637e-16
-6.53016e-16
9.09002e-16
-6.26434e-16
9.62542e-16
-5.95484e-16
1.02407e-15
-5.61004e-16
1.09301e-15
-5.23879e-16
1.16816e-15
-4.84894e-16
1.24792e-15
-4.44948e-16
1.33003e-15
-4.05086e-16
1.41166e-15
-3.66363e-16
1.48946e-15
-3.29141e-16
1.55961e-15
-2.9266e-16
1.61797e-15
-2.54789e-16
1.6592e-15
-2.14822e-16
1.67592e-15
-1.77674e-16
1.66093e-15
-1.42438e-16
1.60656e-15
-1.08326e-16
1.50105e-15
-7.3178e-17
1.33438e-15
-4.32706e-17
1.08671e-15
-2.23059e-17
7.34912e-16
3.15139e-16
-1.81972e-17
-5.76948e-16
-7.57502e-17
-1.4121e-15
-1.52922e-16
-2.1132e-15
-2.35795e-16
-2.62101e-15
-3.21301e-16
-2.95989e-15
-4.05214e-16
-3.14653e-15
-4.85123e-16
-3.20052e-15
-5.61571e-16
-3.14144e-15
-6.35934e-16
-2.98903e-15
-7.10077e-16
-2.76164e-15
-7.8416e-16
-2.47709e-15
-8.58173e-16
-2.15276e-15
-9.32134e-16
-1.80552e-15
-1.0061e-15
-1.45105e-15
-1.08028e-15
-1.10333e-15
-1.15502e-15
-7.73935e-16
-1.23069e-15
-4.71835e-16
-1.30764e-15
-2.03206e-16
-1.3859e-15
2.8551e-17
-1.46512e-15
2.22483e-16
-1.54452e-15
3.79565e-16
-1.6231e-15
5.02343e-16
-1.69947e-15
5.94512e-16
-1.77208e-15
6.60497e-16
-1.83913e-15
7.0497e-16
-1.89897e-15
7.32403e-16
-1.95001e-15
7.4697e-16
-1.99097e-15
7.52527e-16
-2.02078e-15
7.52688e-16
-2.03866e-15
7.50415e-16
-2.04369e-15
7.4819e-16
-2.03563e-15
7.48419e-16
-2.01452e-15
7.53073e-16
-1.98075e-15
7.63665e-16
-1.9349e-15
7.81538e-16
-1.87784e-15
8.07669e-16
-1.81055e-15
8.42701e-16
-1.73412e-15
8.86895e-16
-1.64957e-15
9.40116e-16
-1.55787e-15
1.00174e-15
-1.45994e-15
1.07063e-15
-1.35672e-15
1.14511e-15
-1.24921e-15
1.22293e-15
-1.13874e-15
1.30126e-15
-1.02673e-15
1.37676e-15
-9.13841e-16
1.44557e-15
-7.99524e-16
1.50324e-15
-6.83332e-16
1.54423e-15
-5.67063e-16
1.56167e-15
-4.54191e-16
1.54941e-15
-3.47292e-16
1.49815e-15
-2.46492e-16
1.40026e-15
-1.55608e-16
1.24136e-15
-8.11811e-17
1.00626e-15
-2.82221e-17
6.80004e-16
2.86668e-16
-3.89557e-17
-5.38217e-16
-1.33407e-16
-1.31673e-15
-2.65964e-16
-1.98157e-15
-4.23187e-16
-2.46544e-15
-5.95014e-16
-2.78947e-15
-7.7256e-16
-2.9698e-15
-9.50352e-16
-3.02295e-15
-1.12577e-15
-2.96585e-15
-1.29733e-15
-2.81744e-15
-1.46395e-15
-2.59551e-15
-1.62454e-15
-2.31759e-15
-1.77827e-15
-2.00067e-15
-1.92459e-15
-1.66121e-15
-2.06337e-15
-1.31455e-15
-2.19475e-15
-9.7428e-16
-2.31914e-15
-6.51748e-16
-2.43715e-15
-3.558e-16
-2.54935e-15
-9.267e-17
-2.65612e-15
1.3399e-16
-2.7575e-15
3.22869e-16
-2.85324e-15
4.74609e-16
-2.94272e-15
5.91417e-16
-3.02508e-15
6.76672e-16
-3.09908e-15
7.34536e-16
-3.16344e-15
7.69519e-16
-3.21681e-15
7.86106e-16
-3.25792e-15
7.88521e-16
-3.28561e-15
7.80838e-16
-3.29895e-15
7.66801e-16
-3.29712e-15
7.49617e-16
-3.27951e-15
7.31805e-16
-3.24572e-15
7.16055e-16
-3.1958e-15
7.04655e-16
-3.13003e-15
6.99497e-16
-3.04897e-15
7.02117e-16
-2.95338e-15
7.13744e-16
-2.84424e-15
7.35143e-16
-2.72257e-15
7.6668e-16
-2.58946e-15
8.08237e-16
-2.44591e-15
8.59257e-16
-2.29292e-15
9.18627e-16
-2.13151e-15
9.84737e-16
-1.96289e-15
1.05536e-15
-1.78862e-15
1.12769e-15
-1.61046e-15
1.19846e-15
-1.4294e-15
1.26386e-15
-1.2455e-15
1.31943e-15
-1.0594e-15
1.35988e-15
-8.74385e-16
1.37907e-15
-6.94638e-16
1.37063e-15
-5.23904e-16
1.32701e-15
-3.6552e-16
1.23966e-15
-2.25832e-16
1.0979e-15
-1.11995e-16
8.9051e-16
-3.59951e-17
5.97947e-16
2.50334e-16
-5.31431e-17
-4.83256e-16
-1.77717e-16
-1.18854e-15
-3.57485e-16
-1.80016e-15
-5.75422e-16
-2.24697e-15
-8.18563e-16
-2.54646e-15
-1.07575e-15
-2.71303e-15
-1.33815e-15
-2.76096e-15
-1.5992e-15
-2.70521e-15
-1.85479e-15
-2.56245e-15
-2.10187e-15
-2.34931e-15
-2.33818e-15
-2.0825e-15
-2.56201e-15
-1.77835e-15
-2.77234e-15
-1.45271e-15
-2.96869e-15
-1.12019e-15
-3.15114e-15
-7.93907e-16
-3.32013e-15
-4.84818e-16
-3.47632e-15
-2.01549e-16
-3.62043e-15
4.9683e-17
-3.75309e-15
2.65128e-16
-3.87469e-15
4.43188e-16
-3.98531e-15
5.84229e-16
-4.08476e-15
6.90091e-16
-4.17249e-15
7.63912e-16
-4.24771e-15
8.09504e-16
-4.30948e-15
8.31266e-16
-4.35686e-15
8.33579e-16
-4.38877e-15
8.20641e-16
-4.40427e-15
7.9665e-16
-4.40262e-15
7.65657e-16
-4.38314e-15
7.30896e-16
-4.34527e-15
6.94955e-16
-4.28862e-15
6.60582e-16
-4.2131e-15
6.30482e-16
-4.11904e-15
6.06905e-16
-4.00695e-15
5.91657e-16
-3.87758e-15
5.86099e-16
-3.73182e-15
5.91144e-16
-3.57071e-15
6.07247e-16
-3.39529e-15
6.34394e-16
-3.20665e-15
6.7207e-16
-3.00582e-15
7.19258e-16
-2.79393e-15
7.74396e-16
-2.57234e-15
8.35357e-16
-2.34286e-15
8.99468e-16
-2.10751e-15
9.63568e-16
-1.86768e-15
1.02396e-15
-1.62398e-15
1.07646e-15
-1.37797e-15
1.11621e-15
-1.1337e-15
1.13779e-15
-8.9662e-16
1.13525e-15
-6.71782e-16
1.10213e-15
-4.65234e-16
1.03097e-15
-2.83103e-16
9.14483e-16
-1.3887e-16
7.38438e-16
-4.12057e-17
4.96132e-16
2.08788e-16
-6.2817e-17
-4.1855e-16
-2.08361e-16
-1.0363e-15
-4.26245e-16
-1.57758e-15
-6.94087e-16
-1.97591e-15
-9.95887e-16
-2.24289e-15
-1.31807e-15
-2.39027e-15
-1.64925e-15
-2.42983e-15
-1.98049e-15
-2.37432e-15
-2.30544e-15
-2.23804e-15
-2.61946e-15
-2.03611e-15
-2.91908e-15
-1.78392e-15
-3.20182e-15
-1.4969e-15
-3.46612e-15
-1.18987e-15
-3.71118e-15
-8.76714e-16
-3.9369e-15
-5.69805e-16
-4.1437e-15
-2.79642e-16
-4.3323e-15
-1.45389e-17
-4.50352e-15
2.1941e-16
-4.65812e-15
4.18396e-16
-4.79671e-15
5.80669e-16
-4.91969e-15
7.0629e-16
-5.02715e-15
7.96906e-16
-5.11893e-15
8.55312e-16
-5.19457e-15
8.84999e-16
-5.25353e-15
8.90171e-16
-5.29519e-15
8.75194e-16
-5.3186e-15
8.43983e-16
-5.32295e-15
8.00965e-16
-5.30791e-15
7.50743e-16
-5.27311e-15
6.96478e-16
-5.21786e-15
6.4032e-16
-5.14159e-15
5.8514e-16
-5.04428e-15
5.34211e-16
-4.92628e-15
4.90128e-16
-4.78813e-15
4.5489e-16
-4.63053e-15
4.30003e-16
-4.45436e-15
4.16522e-16
-4.26059e-15
4.1501e-16
-4.0503e-15
4.25545e-16
-3.82453e-15
4.47701e-16
-3.5844e-15
4.80538e-16
-3.33109e-15
5.22592e-16
-3.06609e-15
5.71894e-16
-2.79138e-15
6.25946e-16
-2.50925e-15
6.81773e-16
-2.2214e-15
7.35994e-16
-1.92898e-15
7.8477e-16
-1.63412e-15
8.23823e-16
-1.34171e-15
8.48393e-16
-1.05815e-15
8.53463e-16
-7.90293e-16
8.33448e-16
-5.43541e-16
7.8403e-16
-3.30275e-16
6.95578e-16
-1.5902e-16
5.64132e-16
-4.71457e-17
3.76868e-16
1.61191e-16
-6.94213e-17
-3.45639e-16
-2.29718e-16
-8.66897e-16
-4.75372e-16
-1.32481e-15
-7.80988e-16
-1.66506e-15
-1.1277e-15
-1.89301e-15
-1.49969e-15
-2.01679e-15
-1.88369e-15
-2.04533e-15
-2.26906e-15
-1.98889e-15
-2.64782e-15
-1.85951e-15
-3.01402e-15
-1.67037e-15
-3.36329e-15
-1.43543e-15
-3.69237e-15
-1.16878e-15
-3.9992e-15
-8.84131e-16
-4.28268e-15
-5.94404e-16
-4.54251e-15
-3.11195e-16
-4.77903e-15
-4.43856e-17
-4.99294e-15
1.98077e-16
-5.18513e-15
4.10362e-16
-5.35648e-15
5.8863e-16
-5.50779e-15
7.31013e-16
-5.6396e-15
8.37371e-16
-5.75232e-15
9.09129e-16
-5.84615e-15
9.4885e-16
-5.92092e-15
9.59548e-16
-5.97646e-15
9.45481e-16
-6.0126e-15
9.11081e-16
-6.02812e-15
8.59256e-16
-6.02217e-15
7.94878e-16
-5.99536e-15
7.23979e-16
-5.94784e-15
6.49234e-16
-5.87838e-15
5.71332e-16
-5.7861e-15
4.93551e-16
-5.67123e-15
4.20175e-16
-5.5342e-15
3.54109e-16
-5.37561e-15
2.97454e-16
-5.19613e-15
2.51792e-16
-4.99658e-15
2.18292e-16
-4.77789e-15
1.97618e-16
-4.54107e-15
1.89953e-16
-4.28717e-15
1.94977e-16
-4.01731e-15
2.11863e-16
-3.73272e-15
2.39289e-16
-3.43496e-15
2.75461e-16
-3.12618e-15
3.18094e-16
-2.80882e-15
3.64515e-16
-2.48487e-15
4.11687e-16
-2.15581e-15
4.56243e-16
-1.82432e-15
4.94551e-16
-1.49585e-15
5.22747e-16
-1.17788e-15
5.36705e-16
-8.76965e-16
5.32924e-16
-6.02906e-16
5.05808e-16
-3.63096e-16
4.55162e-16
-1.77543e-16
3.68491e-16
-5.5052e-17
2.48382e-16
1.05711e-16
-7.34575e-17
-2.6872e-16
-2.43476e-16
-6.86538e-16
-5.07203e-16
-1.05293e-15
-8.38237e-16
-1.32783e-15
-1.2155e-15
-1.51167e-15
-1.62172e-15
-1.6084e-15
-2.04227e-15
-1.62373e-15
-2.46532e-15
-1.56534e-15
-2.88175e-15
-1.4429e-15
-3.28468e-15
-1.26763e-15
-3.6689e-15
-1.05169e-15
-4.0307e-15
-8.07718e-16
-4.36756e-15
-5.48194e-16
-4.67806e-15
-2.84944e-16
-4.96171e-15
-2.86713e-17
-5.21874e-15
2.11421e-16
-5.44978e-15
4.27892e-16
-5.65579e-15
6.15156e-16
-5.83775e-15
7.69462e-16
-5.99657e-15
8.88859e-16
-6.13301e-15
9.73021e-16
-6.24753e-15
1.02302e-15
-6.34064e-15
1.04138e-15
-6.41259e-15
1.03093e-15
-6.46393e-15
9.96331e-16
-6.49503e-15
9.41873e-16
-6.50326e-15
8.67462e-16
-6.48719e-15
7.79099e-16
-6.45009e-15
6.8741e-16
-6.3929e-15
5.92687e-16
-6.31258e-15
4.91723e-16
-6.20809e-15
3.89804e-16
-6.08023e-15
2.93158e-16
-5.92962e-15
2.04461e-16
-5.75679e-15
1.25729e-16
-5.56237e-15
5.85842e-17
-5.34711e-15
4.29288e-18
-5.11189e-15
-3.63881e-17
-4.85764e-15
-6.31611e-17
-4.58537e-15
-7.62195e-17
-4.29616e-15
-7.62363e-17
-3.99126e-15
-6.43794e-17
-3.67228e-15
-4.22637e-17
-3.34142e-15
-1.18934e-17
-3.00127e-15
2.43642e-17
-2.65396e-15
6.38926e-17
-2.30122e-15
1.03897e-16
-1.94603e-15
1.41456e-16
-1.59434e-15
1.73577e-16
-1.2538e-15
1.97507e-16
-9.33283e-16
2.10158e-16
-6.38848e-16
2.11831e-16
-3.87194e-16
1.94747e-16
-1.86358e-16
1.63215e-16
-5.66962e-17
1.10359e-16
4.84712e-17
-7.45259e-17
-1.90142e-16
-2.4999e-16
-5.00499e-16
-5.22916e-16
-7.71496e-16
-8.67135e-16
-9.76934e-16
-1.26082e-15
-1.11357e-15
-1.68573e-15
-1.18095e-15
-2.12654e-15
-1.18157e-15
-2.57068e-15
-1.12042e-15
-3.00838e-15
-1.0048e-15
-3.4321e-15
-8.43853e-16
-3.83616e-15
-6.47958e-16
-4.21639e-15
-4.28116e-16
-4.56998e-15
-1.95473e-16
-4.89527e-15
3.93242e-17
-5.1916e-15
2.66515e-16
-5.45903e-15
4.77664e-16
-5.69821e-15
6.65847e-16
-5.91008e-15
8.25813e-16
-6.09575e-15
9.53955e-16
-6.25628e-15
1.04834e-15
-6.39272e-15
1.10851e-15
-6.50582e-15
1.13522e-15
-6.59539e-15
1.13004e-15
-6.66146e-15
1.09623e-15
-6.70587e-15
1.04018e-15
-6.73017e-15
9.66028e-16
-6.73161e-15
8.69212e-16
-6.70868e-15
7.56827e-16
-6.66478e-15
6.44314e-16
-6.6001e-15
5.28863e-16
-6.51136e-15
4.03782e-16
-6.39818e-15
2.77442e-16
-6.26219e-15
1.58061e-16
-6.10379e-15
4.70815e-17
-5.92334e-15
-5.35703e-17
-5.72138e-15
-1.4212e-16
-5.49856e-15
-2.17253e-16
-5.25567e-15
-2.78045e-16
-4.99358e-15
-3.24115e-16
-4.71324e-15
-3.55493e-16
-4.41564e-15
-3.72712e-16
-4.102e-15
-3.76768e-16
-3.7739e-15
-3.69063e-16
-3.43356e-15
-3.51342e-16
-3.0836e-15
-3.2561e-16
-2.72623e-15
-2.94022e-16
-2.36325e-15
-2.58772e-16
-1.99783e-15
-2.22029e-16
-1.63602e-15
-1.8574e-16
-1.28634e-15
-1.51696e-16
-9.55665e-16
-1.20166e-16
-6.56131e-16
-9.44563e-17
-3.93997e-16
-6.78352e-17
-1.92711e-16
-4.96142e-17
-5.98538e-17
-3.00381e-17
-1.1845e-17
-7.38971e-17
-1.1245e-16
-2.49423e-16
-3.145e-16
-5.23046e-16
-4.89386e-16
-8.68972e-16
-6.24548e-16
-1.26525e-15
-7.12942e-16
-1.69367e-15
-7.50057e-16
-2.1387e-15
-7.3518e-16
-2.58755e-15
-6.70743e-16
-3.03014e-15
-5.61711e-16
-3.45869e-15
-4.15175e-16
-3.86722e-15
-2.39659e-16
-4.25133e-15
-4.45657e-17
-4.60798e-15
1.60402e-16
-4.93537e-15
3.65761e-16
-5.23266e-15
5.62782e-16
-5.49987e-15
7.4378e-16
-5.73758e-15
9.0243e-16
-5.94676e-15
1.03383e-15
-6.12855e-15
1.13461e-15
-6.28417e-15
1.20285e-15
-6.41478e-15
1.23804e-15
-6.52135e-15
1.24073e-15
-6.60422e-15
1.21197e-15
-6.66435e-15
1.15553e-15
-6.70235e-15
1.07769e-15
-6.71785e-15
9.8142e-16
-6.71189e-15
8.63455e-16
-6.68505e-15
7.3036e-16
-6.6352e-15
5.94993e-16
-6.56206e-15
4.56274e-16
-6.46731e-15
3.09724e-16
-6.35085e-15
1.61809e-16
-6.21253e-15
2.0729e-17
-6.05261e-15
-1.11714e-16
-5.87147e-15
-2.33447e-16
-5.66961e-15
-3.42659e-16
-5.44762e-15
-4.37902e-16
-5.2062e-15
-5.18189e-16
-4.94615e-15
-5.82983e-16
-4.66829e-15
-6.32218e-16
-4.37354e-15
-6.66284e-16
-4.063e-15
-6.85986e-16
-3.7382e-15
-6.92515e-16
-3.40129e-15
-6.87331e-16
-3.05482e-15
-6.72078e-16
-2.70095e-15
-6.48409e-16
-2.34143e-15
-6.17925e-16
-1.97934e-15
-5.82008e-16
-1.62091e-15
-5.41755e-16
-1.27385e-15
-4.97398e-16
-9.47923e-16
-4.4943e-16
-6.48348e-16
-3.92975e-16
-3.93183e-16
-3.33901e-16
-1.88142e-16
-2.59607e-16
-5.45327e-17
-1.72023e-16
-6.69294e-17
-7.14638e-17
-3.72095e-17
-2.42327e-16
-1.33107e-16
-5.08719e-16
-2.15153e-16
-8.44971e-16
-2.82381e-16
-1.23057e-15
-3.23501e-16
-1.64783e-15
-3.30673e-16
-2.08153e-15
-3.00368e-16
-2.51912e-15
-2.32511e-16
-2.95064e-15
-1.29859e-16
-3.36831e-15
2.50962e-18
-3.76612e-15
1.57834e-16
-4.1396e-15
3.28311e-16
-4.48564e-15
5.05623e-16
-4.80233e-15
6.81501e-16
-5.08876e-15
8.48191e-16
-5.34491e-15
9.98838e-16
-5.57136e-15
1.1277e-15
-5.76905e-15
1.23033e-15
-5.93919e-15
1.30353e-15
-6.08305e-15
1.34551e-15
-6.2019e-15
1.35571e-15
-6.29687e-15
1.33462e-15
-6.36957e-15
1.28371e-15
-6.42134e-15
1.20663e-15
-6.45151e-15
1.10744e-15
-6.45858e-15
9.88284e-16
-6.44523e-15
8.50011e-16
-6.41302e-15
6.98185e-16
-6.35849e-15
5.40626e-16
-6.28103e-15
3.79236e-16
-6.18405e-15
2.13442e-16
-6.06834e-15
4.70837e-17
-5.93271e-15
-1.1372e-16
-5.77719e-15
-2.65876e-16
-5.60215e-15
-4.07047e-16
-5.40798e-15
-5.3531e-16
-5.19522e-15
-6.49148e-16
-4.96444e-15
-7.47509e-16
-4.71629e-15
-8.29757e-16
-4.4515e-15
-8.95721e-16
-4.17081e-15
-9.45634e-16
-3.87523e-15
-9.80125e-16
-3.56613e-15
-1.00013e-15
-3.24554e-15
-1.00688e-15
-2.91583e-15
-1.00165e-15
-2.57897e-15
-9.85631e-16
-2.23649e-15
-9.59804e-16
-1.89135e-15
-9.24882e-16
-1.54935e-15
-8.80901e-16
-1.21893e-15
-8.27388e-16
-9.06163e-16
-7.61383e-16
-6.23376e-16
-6.83822e-16
-3.74047e-16
-5.81784e-16
-1.83762e-16
-4.61316e-16
-5.72243e-17
-3.05323e-16
-1.24528e-16
-6.61809e-17
3.29281e-17
-2.29034e-16
3.84226e-17
-4.80263e-16
4.28978e-17
-7.96434e-16
3.87264e-17
-1.15875e-15
4.18794e-17
-1.55085e-15
6.28893e-17
-1.95842e-15
1.07755e-16
-2.36954e-15
1.78766e-16
-2.77466e-15
2.75207e-16
-3.16633e-15
3.93836e-16
-3.53871e-15
5.29587e-16
-3.88746e-15
6.76158e-16
-4.20952e-15
8.26595e-16
-4.50298e-15
9.73775e-16
-4.76693e-15
1.11088e-15
-5.00133e-15
1.23188e-15
-5.20674e-15
1.33175e-15
-5.38422e-15
1.40643e-15
-5.53501e-15
1.45296e-15
-5.66054e-15
1.46973e-15
-5.76225e-15
1.45621e-15
-5.84157e-15
1.41289e-15
-5.90002e-15
1.34136e-15
-5.93837e-15
1.24443e-15
-5.9565e-15
1.12523e-15
-5.9546e-15
9.86171e-16
-5.93442e-15
8.29733e-16
-5.89671e-15
6.60517e-16
-5.83981e-15
4.84011e-16
-5.76315e-15
3.03182e-16
-5.66846e-15
1.19722e-16
-5.55707e-15
-6.30518e-17
-5.42864e-15
-2.4064e-16
-5.28313e-15
-4.09718e-16
-5.12069e-15
-5.67672e-16
-4.94164e-15
-7.12496e-16
-4.74632e-15
-8.42611e-16
-4.53513e-15
-9.56896e-16
-4.3086e-15
-1.05462e-15
-4.06722e-15
-1.13551e-15
-3.8116e-15
-1.19965e-15
-3.54253e-15
-1.24747e-15
-3.26124e-15
-1.2797e-15
-2.96951e-15
-1.29731e-15
-2.66945e-15
-1.30131e-15
-2.3627e-15
-1.29241e-15
-2.05055e-15
-1.27105e-15
-1.73549e-15
-1.23724e-15
-1.4232e-15
-1.19033e-15
-1.12039e-15
-1.12818e-15
-8.36043e-16
-1.0488e-15
-5.72739e-16
-9.43363e-16
-3.49152e-16
-8.15757e-16
-1.67207e-16
-6.45083e-16
-4.91531e-17
-4.298e-16
-1.741e-16
-5.95453e-17
9.51733e-17
-2.10101e-16
1.97386e-16
-4.38654e-16
2.77291e-16
-7.24359e-16
3.28692e-16
-1.05158e-15
3.71452e-16
-1.4056e-15
4.17746e-16
-1.77332e-15
4.75495e-16
-2.14378e-15
5.48942e-16
-2.50821e-15
6.39137e-16
-2.85968e-15
7.44544e-16
-3.19278e-15
8.61622e-16
-3.50342e-15
9.85499e-16
-3.78874e-15
1.11045e-15
-4.04698e-15
1.23045e-15
-4.27725e-15
1.3395e-15
-4.47948e-15
1.43246e-15
-4.65438e-15
1.50495e-15
-4.80306e-15
1.55349e-15
-4.92687e-15
1.57522e-15
-5.02734e-15
1.56878e-15
-5.10608e-15
1.53367e-15
-5.16465e-15
1.47041e-15
-5.20447e-15
1.38037e-15
-5.22647e-15
1.26591e-15
-5.23115e-15
1.12958e-15
-5.21916e-15
9.74072e-16
-5.19165e-15
8.02239e-16
-5.14911e-15
6.18224e-16
-5.09096e-15
4.26375e-16
-5.01707e-15
2.30174e-16
-4.92839e-15
3.22715e-17
-4.82587e-15
-1.63994e-16
-4.70966e-15
-3.55023e-16
-4.57979e-15
-5.37482e-16
-4.4364e-15
-7.0886e-16
-4.2796e-15
-8.66953e-16
-4.10962e-15
-1.01031e-15
-3.92667e-15
-1.1376e-15
-3.73106e-15
-1.24818e-15
-3.52306e-15
-1.34154e-15
-3.30303e-15
-1.41775e-15
-3.07153e-15
-1.47693e-15
-2.82953e-15
-1.51967e-15
-2.57859e-15
-1.54666e-15
-2.32039e-15
-1.55883e-15
-2.05623e-15
-1.55632e-15
-1.78694e-15
-1.53911e-15
-1.51462e-15
-1.50662e-15
-1.24399e-15
-1.45746e-15
-9.82133e-16
-1.38891e-15
-7.32751e-16
-1.29546e-15
-5.06867e-16
-1.1762e-15
-3.04373e-16
-1.01273e-15
-1.51385e-16
-8.07679e-16
-4.88829e-17
-5.3726e-16
-2.23245e-16
-5.35573e-17
1.52184e-16
-1.85846e-16
3.36341e-16
-3.83309e-16
4.79949e-16
-6.29555e-16
5.78615e-16
-9.11127e-16
6.5514e-16
-1.21539e-15
7.2258e-16
-1.53084e-15
7.90675e-16
-1.84781e-15
8.65249e-16
-2.1585e-15
9.48968e-16
-2.45679e-15
1.04169e-15
-2.73783e-15
1.14125e-15
-2.99799e-15
1.24396e-15
-3.23472e-15
1.34534e-15
-3.44653e-15
1.44031e-15
-3.63262e-15
1.52362e-15
-3.79298e-15
1.59077e-15
-3.92828e-15
1.6383e-15
-4.03992e-15
1.66323e-15
-4.12934e-15
1.66287e-15
-4.19821e-15
1.636e-15
-4.24824e-15
1.5823e-15
-4.28119e-15
1.50214e-15
-4.29851e-15
1.39683e-15
-4.30141e-15
1.26816e-15
-4.29069e-15
1.11857e-15
-4.26727e-15
9.50503e-16
-4.23196e-15
7.67101e-16
-4.18535e-15
5.7194e-16
-4.12736e-15
3.6912e-16
-4.0582e-15
1.62058e-16
-3.97843e-15
-4.59466e-17
-3.8888e-15
-2.51817e-16
-3.78949e-15
-4.52056e-16
-3.68072e-15
-6.43813e-16
-3.56242e-15
-8.24382e-16
-3.43473e-15
-9.91911e-16
-3.29754e-15
-1.14464e-15
-3.15101e-15
-1.28155e-15
-2.99502e-15
-1.40164e-15
-2.82973e-15
-1.50459e-15
-2.6551e-15
-1.59009e-15
-2.47145e-15
-1.65836e-15
-2.27937e-15
-1.70948e-15
-2.08027e-15
-1.74409e-15
-1.87523e-15
-1.763e-15
-1.66516e-15
-1.76608e-15
-1.45033e-15
-1.75257e-15
-1.23229e-15
-1.72184e-15
-1.01499e-15
-1.67166e-15
-8.03228e-16
-1.59818e-15
-6.03775e-16
-1.49766e-15
-4.15866e-16
-1.35857e-15
-2.566e-16
-1.18295e-15
-1.22253e-16
-9.42409e-16
-3.44971e-17
-6.30055e-16
-2.58147e-16
-4.7066e-17
2.0114e-16
-1.53946e-16
4.48812e-16
-3.13837e-16
6.44371e-16
-5.12976e-16
7.80912e-16
-7.39899e-16
8.83379e-16
-9.84229e-16
9.66868e-16
-1.23646e-15
1.04237e-15
-1.48851e-15
1.11665e-15
-1.7339e-15
1.19358e-15
-1.96746e-15
1.2742e-15
-2.18509e-15
1.35753e-15
-2.38364e-15
1.44095e-15
-2.56103e-15
1.521e-15
-2.71613e-15
1.59364e-15
-2.84853e-15
1.65425e-15
-2.95831e-15
1.69887e-15
-3.04597e-15
1.72432e-15
-3.11269e-15
1.72841e-15
-3.16073e-15
1.70944e-15
-3.19166e-15
1.66563e-15
-3.20759e-15
1.59704e-15
-3.21027e-15
1.50392e-15
-3.20151e-15
1.38733e-15
-3.18247e-15
1.24872e-15
-3.15445e-15
1.09029e-15
-3.11821e-15
9.14301e-16
-3.0748e-15
7.23868e-16
-3.02458e-15
5.2227e-16
-2.96808e-15
3.13368e-16
-2.90537e-15
1.00563e-16
-2.83724e-15
-1.12698e-16
-2.76391e-15
-3.23375e-16
-2.68596e-15
-5.28162e-16
-2.60317e-15
-7.24469e-16
-2.51579e-15
-9.09605e-16
-2.4234e-15
-1.08196e-15
-2.32606e-15
-1.23974e-15
-2.22328e-15
-1.38212e-15
-2.11505e-15
-1.50791e-15
-2.00085e-15
-1.61687e-15
-1.88066e-15
-1.70842e-15
-1.75408e-15
-1.78294e-15
-1.62158e-15
-1.84013e-15
-1.48391e-15
-1.88027e-15
-1.34232e-15
-1.90402e-15
-1.19656e-15
-1.91161e-15
-1.04677e-15
-1.90128e-15
-8.93309e-16
-1.87253e-15
-7.3921e-16
-1.82245e-15
-5.89331e-16
-1.74721e-15
-4.44517e-16
-1.63962e-15
-3.12872e-16
-1.49792e-15
-1.89223e-16
-1.29949e-15
-9.62916e-17
-1.04333e-15
-3.22316e-17
-6.99227e-16
-2.9058e-16
-3.69482e-17
2.40233e-16
-1.14432e-16
5.30358e-16
-2.32046e-16
7.63829e-16
-3.77537e-16
9.27716e-16
-5.4164e-16
1.04792e-15
-7.1694e-16
1.14219e-15
-8.96408e-16
1.2217e-15
-1.07376e-15
1.29401e-15
-1.24395e-15
1.36374e-15
-1.40291e-15
1.43302e-15
-1.54738e-15
1.50159e-15
-1.67483e-15
1.5678e-15
-1.78341e-15
1.62891e-15
-1.87225e-15
1.68194e-15
-1.94128e-15
1.7228e-15
-1.99249e-15
1.74972e-15
-2.02624e-15
1.75774e-15
-2.04189e-15
1.74377e-15
-2.04177e-15
1.70901e-15
-2.02925e-15
1.65283e-15
-2.00609e-15
1.57364e-15
-1.97448e-15
1.47216e-15
-1.93607e-15
1.34875e-15
-1.89262e-15
1.20524e-15
-1.84522e-15
1.04284e-15
-1.79513e-15
8.64365e-16
-1.74298e-15
6.71959e-16
-1.6897e-15
4.69434e-16
-1.63548e-15
2.59682e-16
-1.5811e-15
4.67847e-17
-1.52675e-15
-1.66609e-16
-1.47312e-15
-3.76653e-16
-1.42015e-15
-5.81038e-16
-1.36808e-15
-7.76329e-16
-1.31653e-15
-9.61082e-16
-1.26536e-15
-1.13283e-15
-1.21389e-15
-1.29103e-15
-1.16176e-15
-1.43385e-15
-1.10816e-15
-1.56119e-15
-1.05273e-15
-1.6717e-15
-9.94725e-16
-1.76583e-15
-9.33939e-16
-1.84283e-15
-8.69673e-16
-1.90347e-15
-8.02006e-16
-1.94712e-15
-7.31802e-16
-1.97421e-15
-6.59221e-16
-1.98428e-15
-5.83152e-16
-1.97647e-15
-5.03443e-16
-1.94941e-15
-4.21941e-16
-1.90076e-15
-3.40798e-16
-1.825e-15
-2.63762e-16
-1.71792e-15
-1.86426e-16
-1.56675e-15
-1.21009e-16
-1.37283e-15
-5.97236e-17
-1.10399e-15
-1.68694e-17
-7.43694e-16
-3.07666e-16
-2.2979e-17
2.6389e-16
-7.09874e-17
5.77417e-16
-1.41039e-16
8.32508e-16
-2.26046e-16
1.01037e-15
-3.20122e-16
1.13917e-15
-4.18975e-16