/*--------------------------------*- C++ -*----------------------------------*\
| =========                 |                                                 |
| \\      /  F ield         | OpenFOAM: The Open Source CFD Toolbox           |
|  \\    /   O peration     | Version:  5.0                                   |
|   \\  /    A nd           | Web:      www.OpenFOAM.org                      |
|    \\/     M anipulation  |                                                 |
\*---------------------------------------------------------------------------*/
FoamFile
{
    version     2.0;
    format      ascii;
    class       volScalarField;
    location    "332";
    object      p;
}
// * * * * * * * * * * * * * * * * * * * * * * * * * * * * * * * * * * * * * //

dimensions      [0 2 -2 0 0 0 0];

internalField   nonuniform List<scalar> 
1568
(
1.12591e-16
8.37664e-16
1.48111e-15
1.80108e-15
2.11768e-15
2.4251e-15
2.63881e-15
2.84732e-15
3.04586e-15
3.22385e-15
3.39223e-15
3.55827e-15
3.72261e-15
3.88405e-15
4.04631e-15
4.21112e-15
4.37803e-15
4.54831e-15
4.72191e-15
4.89985e-15
5.08081e-15
5.26612e-15
5.44707e-15
5.5832e-15
5.68656e-15
5.82297e-15
6.04189e-15
6.36016e-15
6.71886e-15
7.03828e-15
7.25819e-15
7.39654e-15
7.49909e-15
7.63493e-15
7.81513e-15
8.00138e-15
8.18063e-15
8.35989e-15
8.53283e-15
8.70337e-15
8.87007e-15
9.03557e-15
9.19687e-15
9.35959e-15
9.5221e-15
9.68811e-15
9.85854e-15
1.0039e-14
1.02298e-14
1.04386e-14
1.06754e-14
1.09457e-14
1.12577e-14
1.16241e-14
1.22158e-14
1.28786e-14
5.17952e-16
5.76864e-16
2.25374e-15
2.07872e-15
1.96051e-15
2.71643e-15
2.82716e-15
2.96607e-15
3.23085e-15
3.41846e-15
3.56518e-15
3.72514e-15
3.89406e-15
4.04776e-15
4.20894e-15
4.36989e-15
4.52827e-15
4.69192e-15
4.85732e-15
5.02647e-15
5.195e-15
5.37258e-15
5.55142e-15
5.75758e-15
5.95419e-15
6.15028e-15
6.33745e-15
6.49553e-15
6.58384e-15
6.75773e-15
6.94214e-15
7.13154e-15
7.30827e-15
7.52383e-15
7.70001e-15
7.89041e-15
8.04471e-15
8.22765e-15
8.38325e-15
8.54798e-15
8.70909e-15
8.88357e-15
9.03333e-15
9.19357e-15
9.34842e-15
9.51819e-15
9.68711e-15
9.87146e-15
1.00548e-14
1.02819e-14
1.0542e-14
1.07912e-14
1.11215e-14
1.13713e-14
1.21464e-14
1.25531e-14
1.00402e-15
1.69978e-15
1.17244e-15
2.15409e-15
2.58573e-15
2.7982e-15
2.90826e-15
3.22305e-15
3.41443e-15
3.50215e-15
3.74121e-15
3.93449e-15
4.04899e-15
4.20485e-15
4.36774e-15
4.50044e-15
4.65369e-15
4.8068e-15
4.96424e-15
5.11273e-15
5.27217e-15
5.4328e-15
5.60657e-15
5.76644e-15
5.92914e-15
6.06521e-15
6.24193e-15
6.43705e-15
6.64575e-15
6.82337e-15
6.99913e-15
7.16005e-15
7.35618e-15
7.51398e-15
7.67133e-15
7.81864e-15
7.99437e-15
8.12932e-15
8.28959e-15
8.44515e-15
8.57788e-15
8.69558e-15
8.86504e-15
9.01213e-15
9.17496e-15
9.33551e-15
9.5047e-15
9.68382e-15
9.88604e-15
1.00987e-14
1.03013e-14
1.04887e-14
1.10404e-14
1.12214e-14
1.17206e-14
1.21358e-14
1.36171e-15
1.82872e-15
2.50949e-15
2.47522e-15
2.90209e-15
3.10455e-15
3.23015e-15
3.51372e-15
3.73868e-15
3.89009e-15
4.03293e-15
4.17168e-15
4.32896e-15
4.49153e-15
4.61605e-15
4.76553e-15
4.90926e-15
5.04146e-15
5.17031e-15
5.3239e-15
5.46176e-15
5.60052e-15
5.73108e-15
5.87401e-15
6.00336e-15
6.15037e-15
6.29915e-15
6.46557e-15
6.62691e-15
6.79735e-15
6.9473e-15
7.06501e-15
7.17621e-15
7.30753e-15
7.45874e-15
7.59885e-15
7.74113e-15
7.88956e-15
8.02099e-15
8.16632e-15
8.32168e-15
8.48327e-15
8.62026e-15
8.76096e-15
8.90858e-15
9.06227e-15
9.21279e-15
9.40216e-15
9.5896e-15
9.75882e-15
1.00715e-14
1.03495e-14
1.05114e-14
1.07086e-14
1.14732e-14
1.17407e-14
1.77078e-15
1.84368e-15
2.56569e-15
2.7073e-15
3.04083e-15
3.24449e-15
3.4668e-15
3.6895e-15
3.83047e-15
4.00175e-15
4.16449e-15
4.31402e-15
4.45387e-15
4.58014e-15
4.7086e-15
4.84549e-15
4.97438e-15
5.10842e-15
5.24189e-15
5.37332e-15
5.50353e-15
5.63823e-15
5.77533e-15
5.91611e-15
6.0493e-15
6.19094e-15
6.3313e-15
6.46775e-15
6.60441e-15
6.74733e-15
6.89388e-15
7.04193e-15
7.1817e-15
7.32028e-15
7.4635e-15
7.59703e-15
7.71993e-15
7.85437e-15
7.98444e-15
8.10872e-15
8.23056e-15
8.35628e-15
8.48299e-15
8.6214e-15
8.76022e-15
8.91013e-15
9.07254e-15
9.22678e-15
9.38865e-15
9.63472e-15
9.82936e-15
9.90661e-15
1.03905e-14
1.07161e-14
1.09562e-14
1.12943e-14
2.25668e-15
2.564e-15
2.91561e-15
3.17827e-15
3.34081e-15
3.51829e-15
3.79076e-15
3.97274e-15
4.07873e-15
4.24311e-15
4.40439e-15
4.53759e-15
4.66083e-15
4.79089e-15
4.92136e-15
5.03457e-15
5.14682e-15
5.26506e-15
5.38532e-15
5.4969e-15
5.61506e-15
5.73885e-15
5.86005e-15
5.97948e-15
6.10223e-15
6.22094e-15
6.34759e-15
6.47841e-15
6.60696e-15
6.73321e-15
6.85551e-15
6.97832e-15
7.10742e-15
7.22848e-15
7.34136e-15
7.45986e-15
7.58007e-15
7.69774e-15
7.81742e-15
7.93731e-15
8.05395e-15
8.17333e-15
8.29997e-15
8.42192e-15
8.55394e-15
8.68945e-15
8.81972e-15
8.99073e-15
9.16835e-15
9.27404e-15
9.5196e-15
9.83434e-15
9.95094e-15
1.00064e-14
1.06395e-14
1.0854e-14
2.72008e-15
2.98555e-15
3.27822e-15
3.46947e-15
3.69233e-15
3.91067e-15
4.08448e-15
4.22193e-15
4.38066e-15
4.53232e-15
4.65769e-15
4.77045e-15
4.88635e-15
5.0021e-15
5.10992e-15
5.21764e-15
5.32733e-15
5.43144e-15
5.53426e-15
5.64175e-15
5.74818e-15
5.84929e-15
5.95179e-15
6.057e-15
6.16436e-15
6.27122e-15
6.38008e-15
6.48855e-15
6.5991e-15
6.71e-15
6.81367e-15
6.91426e-15
7.01895e-15
7.12295e-15
7.22532e-15
7.3304e-15
7.43989e-15
7.54268e-15
7.64526e-15
7.75209e-15
7.86196e-15
7.97168e-15
8.08195e-15
8.19377e-15
8.31296e-15
8.43692e-15
8.5648e-15
8.70434e-15
8.84424e-15
9.02943e-15
9.22814e-15
9.28368e-15
9.62917e-15
9.93591e-15
1.01365e-14
1.03696e-14
3.19543e-15
3.3659e-15
3.65228e-15
3.83115e-15
4.05244e-15
4.21641e-15
4.34074e-15
4.47634e-15
4.63163e-15
4.74619e-15
4.85806e-15
4.9711e-15
5.07921e-15
5.17794e-15
5.27236e-15
5.36883e-15
5.46418e-15
5.55632e-15
5.64845e-15
5.7413e-15
5.83249e-15
5.92534e-15
6.01864e-15
6.1127e-15
6.2058e-15
6.30151e-15
6.39606e-15
6.49123e-15
6.58816e-15
6.68374e-15
6.7834e-15
6.88226e-15
6.97293e-15
7.06602e-15
7.16406e-15
7.25675e-15
7.34592e-15
7.43817e-15
7.52962e-15
7.62161e-15
7.71342e-15
7.80569e-15
7.90142e-15
8.00215e-15
8.10686e-15
8.21569e-15
8.32432e-15
8.4583e-15
8.5981e-15
8.70468e-15
8.88068e-15
9.09493e-15
9.24027e-15
9.26787e-15
9.72112e-15
9.89118e-15
3.69371e-15
3.85058e-15
4.12699e-15
4.26171e-15
4.41387e-15
4.52136e-15
4.66784e-15
4.80267e-15
4.91081e-15
5.01469e-15
5.11531e-15
5.2037e-15
5.29717e-15
5.38628e-15
5.46892e-15
5.54983e-15
5.62832e-15
5.70838e-15
5.78789e-15
5.86373e-15
5.9412e-15
6.02407e-15
6.10217e-15
6.18049e-15
6.26044e-15
6.34038e-15
6.42021e-15
6.50149e-15
6.58241e-15
6.66145e-15
6.74283e-15
6.82374e-15
6.90418e-15
6.98307e-15
7.06147e-15
7.13901e-15
7.21643e-15
7.29485e-15
7.37448e-15
7.45377e-15
7.53322e-15
7.61607e-15
7.70144e-15
7.78609e-15
7.8748e-15
7.97219e-15
8.0729e-15
8.17737e-15
8.28021e-15
8.41343e-15
8.57524e-15
8.62209e-15
8.8553e-15
9.05333e-15
9.22193e-15
9.38628e-15
4.20103e-15
4.3373e-15
4.53685e-15
4.64246e-15
4.78084e-15
4.8783e-15
5.01711e-15
5.11829e-15
5.19074e-15
5.28593e-15
5.37594e-15
5.45012e-15
5.52351e-15
5.5956e-15
5.66258e-15
5.73236e-15
5.79854e-15
5.8628e-15
5.92646e-15
5.99475e-15
6.05742e-15
6.11889e-15
6.18343e-15
6.24952e-15
6.31337e-15
6.37798e-15
6.44398e-15
6.51012e-15
6.57489e-15
6.64149e-15
6.70476e-15
6.76788e-15
6.83241e-15
6.89751e-15
6.9607e-15
7.02348e-15
7.08928e-15
7.15459e-15
7.21881e-15
7.28343e-15
7.34994e-15
7.41859e-15
7.48718e-15
7.55854e-15
7.63478e-15
7.7132e-15
7.78897e-15
7.88557e-15
7.98595e-15
8.06083e-15
8.19037e-15
8.31023e-15
8.45905e-15
8.48677e-15
8.7627e-15
8.8827e-15
4.71322e-15
4.8171e-15
4.95554e-15
5.0582e-15
5.17337e-15
5.2437e-15
5.34156e-15
5.4153e-15
5.48559e-15
5.55983e-15
5.62052e-15
5.68532e-15
5.74494e-15
5.79894e-15
5.85296e-15
5.9073e-15
5.96071e-15
6.01131e-15
6.06129e-15
6.11073e-15
6.16288e-15
6.21129e-15
6.26206e-15
6.31049e-15
6.36022e-15
6.41068e-15
6.46484e-15
6.51717e-15
6.56958e-15
6.62116e-15
6.67022e-15
6.72089e-15
6.77196e-15
6.82201e-15
6.87249e-15
6.92279e-15
6.97268e-15
7.02228e-15
7.07243e-15
7.12369e-15
7.17557e-15
7.22751e-15
7.28104e-15
7.33767e-15
7.3972e-15
7.45677e-15
7.52188e-15
7.59724e-15
7.65949e-15
7.73386e-15
7.86525e-15
7.89449e-15
8.00215e-15
8.12881e-15
8.2706e-15
8.3648e-15
5.23368e-15
5.31221e-15
5.41207e-15
5.48186e-15
5.56677e-15
5.60901e-15
5.68116e-15
5.73514e-15
5.78499e-15
5.83823e-15
5.88505e-15
5.92488e-15
5.96512e-15
6.01101e-15
6.05393e-15
6.08808e-15
6.12387e-15
6.1615e-15
6.19999e-15
6.23291e-15
6.27022e-15
6.307e-15
6.34449e-15
6.3816e-15
6.42169e-15
6.45691e-15
6.48897e-15
6.51894e-15
6.55359e-15
6.59166e-15
6.63183e-15
6.66986e-15
6.70507e-15
6.74007e-15
6.77576e-15
6.81401e-15
6.84867e-15
6.88371e-15
6.9205e-15
6.9573e-15
6.99359e-15
7.03252e-15
7.07241e-15
7.11487e-15
7.15723e-15
7.19958e-15
7.24374e-15
7.2942e-15
7.3547e-15
7.40005e-15
7.4568e-15
7.50877e-15
7.64491e-15
7.65491e-15
7.76277e-15
7.84382e-15
5.75712e-15
5.80709e-15
5.8691e-15
5.90682e-15
5.95856e-15
5.97892e-15
6.03079e-15
6.06481e-15
6.08826e-15
6.1149e-15
6.16885e-15
6.19464e-15
6.19531e-15
6.2295e-15
6.252e-15
6.27274e-15
6.2956e-15
6.31806e-15
6.33973e-15
6.36131e-15
6.38095e-15
6.40343e-15
6.42221e-15
6.44028e-15
6.45908e-15
6.482e-15
6.50757e-15
6.53673e-15
6.56088e-15
6.5779e-15
6.5957e-15
6.6163e-15
6.63753e-15
6.66029e-15
6.68121e-15
6.69962e-15
6.722e-15
6.74433e-15
6.76556e-15
6.78699e-15
6.80872e-15
6.83153e-15
6.85446e-15
6.88343e-15
6.88905e-15
6.91784e-15
6.96252e-15
6.99873e-15
7.01661e-15
7.02831e-15
7.13304e-15
7.13693e-15
7.13476e-15
7.18301e-15
7.29728e-15
7.32127e-15
6.28413e-15
6.30254e-15
6.3176e-15
6.33543e-15
6.35835e-15
6.35426e-15
6.37977e-15
6.39119e-15
6.39979e-15
6.4089e-15
6.42418e-15
6.42776e-15
6.43088e-15
6.45116e-15
6.44947e-15
6.45597e-15
6.46548e-15
6.47097e-15
6.47581e-15
6.48436e-15
6.49173e-15
6.49822e-15
6.50526e-15
6.51548e-15
6.52187e-15
6.52882e-15
6.53196e-15
6.53519e-15
6.54126e-15
6.5504e-15
6.55812e-15
6.56595e-15
6.57167e-15
6.57782e-15
6.5866e-15
6.59129e-15
6.5996e-15
6.60577e-15
6.61146e-15
6.61941e-15
6.62635e-15
6.6303e-15
6.63296e-15
6.65033e-15
6.65299e-15
6.66047e-15
6.6689e-15
6.67576e-15
6.69735e-15
6.71608e-15
6.7114e-15
6.66819e-15
6.8143e-15
6.78776e-15
6.75904e-15
6.79012e-15
6.81116e-15
6.80172e-15
6.77554e-15
6.76401e-15
6.76196e-15
6.7296e-15
6.7295e-15
6.71544e-15
6.69659e-15
6.694e-15
6.67601e-15
6.66945e-15
6.669e-15
6.64782e-15
6.64555e-15
6.64048e-15
6.63168e-15
6.62275e-15
6.61637e-15
6.60965e-15
6.60129e-15
6.59169e-15
6.58576e-15
6.58026e-15
6.5731e-15
6.56366e-15
6.55529e-15
6.54299e-15
6.53354e-15
6.52852e-15
6.52249e-15
6.5138e-15
6.50632e-15
6.49672e-15
6.48935e-15
6.48345e-15
6.47463e-15
6.46552e-15
6.45899e-15
6.45047e-15
6.44252e-15
6.43621e-15
6.43505e-15
6.41479e-15
6.41147e-15
6.40417e-15
6.38949e-15
6.39133e-15
6.3629e-15
6.32432e-15
6.37947e-15
6.35432e-15
6.28181e-15
6.21461e-15
6.31058e-15
6.26694e-15
7.33965e-15
7.31186e-15
7.22904e-15
7.18924e-15
7.16493e-15
7.10358e-15
7.08061e-15
7.04384e-15
7.00609e-15
6.98826e-15
6.93622e-15
6.90588e-15
6.90444e-15
6.87081e-15
6.84833e-15
6.82534e-15
6.80119e-15
6.78016e-15
6.75783e-15
6.73347e-15
6.71069e-15
6.6915e-15
6.66561e-15
6.63856e-15
6.61375e-15
6.59204e-15
6.57504e-15
6.55978e-15
6.53826e-15
6.51235e-15
6.48418e-15
6.46113e-15
6.43993e-15
6.41912e-15
6.39352e-15
6.37228e-15
6.34792e-15
6.32751e-15
6.30494e-15
6.28127e-15
6.25747e-15
6.23595e-15
6.20999e-15
6.17758e-15
6.17466e-15
6.1489e-15
6.09289e-15
6.06334e-15
6.04535e-15
6.02748e-15
5.953e-15
5.84778e-15
5.98147e-15
5.89267e-15
5.76028e-15
5.73341e-15
7.86294e-15
7.79489e-15
7.67937e-15
7.61873e-15
7.56249e-15
7.47098e-15
7.42724e-15
7.36847e-15
7.30902e-15
7.26627e-15
7.21546e-15
7.17062e-15
7.13068e-15
7.08566e-15
7.04519e-15
7.00538e-15
6.96874e-15
6.93052e-15
6.89372e-15
6.85626e-15
6.82057e-15
6.78316e-15
6.74809e-15
6.71447e-15
6.68053e-15
6.6413e-15
6.59912e-15
6.5551e-15
6.51707e-15
6.48111e-15
6.44729e-15
6.41152e-15
6.37348e-15
6.33573e-15
6.29971e-15
6.26299e-15
6.22647e-15
6.18901e-15
6.15135e-15
6.11412e-15
6.07625e-15
6.03783e-15
5.99719e-15
5.95245e-15
5.91136e-15
5.86589e-15
5.81418e-15
5.7828e-15
5.70811e-15
5.6182e-15
5.6422e-15
5.57306e-15
5.39735e-15
5.29297e-15
5.32436e-15
5.21523e-15
8.38646e-15
8.30345e-15
8.12998e-15
8.03673e-15
7.95875e-15
7.83953e-15
7.7705e-15
7.68983e-15
7.60815e-15
7.54357e-15
7.47735e-15
7.41461e-15
7.35564e-15
7.29791e-15
7.24258e-15
7.18989e-15
7.13716e-15
7.08396e-15
7.03274e-15
6.98199e-15
6.93175e-15
6.87784e-15
6.82714e-15
6.77316e-15
6.72176e-15
6.66892e-15
6.62161e-15
6.56859e-15
6.51913e-15
6.46393e-15
6.41375e-15
6.35816e-15
6.30859e-15
6.2542e-15
6.20672e-15
6.15161e-15
6.10315e-15
6.04857e-15
6.00006e-15
5.94495e-15
5.89396e-15
5.83668e-15
5.78558e-15
5.72388e-15
5.66668e-15
5.60803e-15
5.53835e-15
5.45618e-15
5.40615e-15
5.34411e-15
5.20289e-15
5.0457e-15
5.15728e-15
5.0157e-15
4.75666e-15
4.68618e-15
8.9007e-15
8.77356e-15
8.57482e-15
8.44795e-15
8.34665e-15
8.20239e-15
8.10834e-15
8.00607e-15
7.90343e-15
7.82241e-15
7.73626e-15
7.65746e-15
7.5803e-15
7.51195e-15
7.438e-15
7.37444e-15
7.30149e-15
7.24183e-15
7.16931e-15
7.11085e-15
7.03682e-15
6.98053e-15
6.90678e-15
6.84912e-15
6.77312e-15
6.71602e-15
6.63848e-15
6.582e-15
6.50381e-15
6.44703e-15
6.3675e-15
6.31128e-15
6.23489e-15
6.17961e-15
6.10216e-15
6.04769e-15
5.9722e-15
5.91656e-15
5.84064e-15
5.78379e-15
5.707e-15
5.64813e-15
5.56966e-15
5.50277e-15
5.4223e-15
5.34449e-15
5.25382e-15
5.19624e-15
5.06676e-15
4.91619e-15
4.93483e-15
4.81115e-15
4.53324e-15
4.37423e-15
4.3498e-15
4.17974e-15
9.41137e-15
9.26388e-15
9.00777e-15
8.84363e-15
8.7194e-15
8.5425e-15
8.43051e-15
8.30724e-15
8.18646e-15
8.0815e-15
7.98407e-15
7.88505e-15
7.7989e-15
7.70847e-15
7.62635e-15
7.53827e-15
7.46242e-15
7.37803e-15
7.30387e-15
7.21858e-15
7.14503e-15
7.06171e-15
6.98575e-15
6.9024e-15
6.82676e-15
6.74237e-15
6.66445e-15
6.57998e-15
6.50086e-15
6.41663e-15
6.33863e-15
6.25693e-15
6.17832e-15
6.09618e-15
6.01753e-15
5.93787e-15
5.8585e-15
5.77988e-15
5.70124e-15
5.62165e-15
5.54e-15
5.45985e-15
5.37455e-15
5.28754e-15
5.19497e-15
5.10866e-15
5.00412e-15
4.87673e-15
4.77595e-15
4.72802e-15
4.48871e-15
4.22452e-15
4.37834e-15
4.20777e-15
3.77989e-15
3.66003e-15
9.91101e-15
9.7264e-15
9.42939e-15
9.24315e-15
9.10493e-15
8.88844e-15
8.75074e-15
8.60934e-15
8.47016e-15
8.3464e-15
8.23701e-15
8.11729e-15
8.02043e-15
7.90818e-15
7.82622e-15
7.7161e-15
7.63952e-15
7.52325e-15
7.45441e-15
7.33669e-15
7.27202e-15
7.1466e-15
7.08576e-15
6.95747e-15
6.89889e-15
6.76478e-15
6.70905e-15
6.56838e-15
6.51502e-15
6.37381e-15
6.3243e-15
6.18274e-15
6.13582e-15
5.99625e-15
5.95167e-15
5.80694e-15
5.76052e-15
5.62119e-15
5.57251e-15
5.43237e-15
5.37994e-15
5.23955e-15
5.17891e-15
5.04354e-15
4.97783e-15
4.83186e-15
4.73127e-15
4.61167e-15
4.50388e-15
4.23274e-15
4.20797e-15
4.15309e-15
3.73771e-15
3.42859e-15
3.42701e-15
3.17494e-15
1.03978e-14
1.01668e-14
9.86148e-15
9.58726e-15
9.44361e-15
9.22944e-15
9.05104e-15
8.90047e-15
8.7408e-15
8.61364e-15
8.46925e-15
8.35901e-15
8.23061e-15
8.13337e-15
7.99953e-15
7.91057e-15
7.7813e-15
7.70308e-15
7.56495e-15
7.4914e-15
7.34867e-15
7.28033e-15
7.13474e-15
7.06471e-15
6.91545e-15
6.84639e-15
6.69252e-15
6.62312e-15
6.46499e-15
6.39649e-15
6.2368e-15
6.16886e-15
6.01192e-15
5.94429e-15
5.79158e-15
5.73284e-15
5.58783e-15
5.51715e-15
5.37388e-15
5.30658e-15
5.16735e-15
5.09405e-15
4.95364e-15
4.86352e-15
4.71385e-15
4.61201e-15
4.47709e-15
4.34347e-15
4.15468e-15
4.08591e-15
3.89539e-15
3.43921e-15
3.58055e-15
3.41118e-15
2.87416e-15
2.67448e-15
1.08711e-14
1.06049e-14
1.02316e-14
9.95347e-15
9.7568e-15
9.51438e-15
9.32476e-15
9.15193e-15
8.97353e-15
8.83046e-15
8.67884e-15
8.55237e-15
8.40379e-15
8.29634e-15
8.15213e-15
8.05927e-15
7.90649e-15
7.8244e-15
7.6669e-15
7.59314e-15
7.42508e-15
7.36035e-15
7.17925e-15
7.12473e-15
6.9352e-15
6.88664e-15
6.68692e-15
6.64247e-15
6.43259e-15
6.39401e-15
6.1795e-15
6.14947e-15
5.93776e-15
5.91257e-15
5.69708e-15
5.67512e-15
5.45403e-15
5.43721e-15
5.23185e-15
5.20438e-15
4.99112e-15
4.96375e-15
4.7588e-15
4.7102e-15
4.51235e-15
4.45266e-15
4.22687e-15
4.13269e-15
3.9388e-15
3.75892e-15
3.50168e-15
3.47218e-15
3.13422e-15
2.66536e-15
2.51192e-15
2.21561e-15
1.13308e-14
1.10664e-14
1.05872e-14
1.0361e-14
1.00947e-14
9.81665e-15
9.64054e-15
9.42612e-15
9.25066e-15
9.07686e-15
8.94459e-15
8.76823e-15
8.66118e-15
8.49091e-15
8.4027e-15
8.22241e-15
8.15023e-15
7.95286e-15
7.89759e-15
7.68114e-15
7.64045e-15
7.40577e-15
7.3765e-15
7.12763e-15
7.1059e-15
6.84404e-15
6.82466e-15
6.54742e-15
6.54049e-15
6.25692e-15
6.2642e-15
5.98912e-15
6.00192e-15
5.72226e-15
5.73009e-15
5.43988e-15
5.45089e-15
5.1825e-15
5.16467e-15
4.90119e-15
4.89029e-15
4.63286e-15
4.6068e-15
4.36902e-15
4.32472e-15
4.08808e-15
4.00265e-15
3.78392e-15
3.66261e-15
3.4117e-15
3.28072e-15
2.91499e-15
2.6571e-15
2.64218e-15
1.99596e-15
1.74672e-15
1.17601e-14
1.14248e-14
1.08166e-14
1.06093e-14
1.03415e-14
1.00607e-14
9.86065e-15
9.6533e-15
9.4622e-15
9.29269e-15
9.12906e-15
8.97069e-15
8.82746e-15
8.67317e-15
8.53161e-15
8.37984e-15
8.25043e-15
8.09265e-15
7.96651e-15
7.80449e-15
7.68098e-15
7.51522e-15
7.39499e-15
7.21638e-15
7.10617e-15
6.92876e-15
6.81434e-15
6.61084e-15
6.48482e-15
6.27223e-15
6.14589e-15
5.92823e-15
5.81124e-15
5.61326e-15
5.52684e-15
5.34619e-15
5.26326e-15
5.05346e-15
4.98735e-15
4.81635e-15
4.74491e-15
4.55142e-15
4.463e-15
4.26332e-15
4.16147e-15
3.96038e-15
3.85256e-15
3.63652e-15
3.47563e-15
3.21693e-15
3.08291e-15
2.78465e-15
2.52089e-15
2.19904e-15
1.66951e-15
1.3261e-15
1.21709e-14
1.18249e-14
1.12518e-14
1.08982e-14
1.06201e-14
1.03049e-14
1.00547e-14
9.86253e-15
9.64377e-15
9.47959e-15
9.28582e-15
9.15275e-15
8.96072e-15
8.8545e-15
8.6551e-15
8.56729e-15
8.34986e-15
8.2795e-15
8.03751e-15
7.98604e-15
7.71581e-15
7.67699e-15
7.38487e-15
7.37122e-15
7.07551e-15
7.08638e-15
6.74219e-15
6.71794e-15
6.34462e-15
6.3398e-15
5.98763e-15
6.0726e-15
5.75619e-15
5.79787e-15
5.42249e-15
5.45349e-15
5.08784e-15
5.12773e-15
4.79468e-15
4.7778e-15
4.43184e-15
4.45705e-15
4.15066e-15
4.14101e-15
3.85456e-15
3.81737e-15
3.51994e-15
3.43537e-15
3.17163e-15
3.03044e-15
2.70056e-15
2.41964e-15
2.19923e-15
1.81641e-15
1.26759e-15
9.14722e-16
1.25777e-14
1.21128e-14
1.14945e-14
1.1107e-14
1.08302e-14
1.05633e-14
1.03269e-14
1.01077e-14
9.91424e-15
9.73291e-15
9.56567e-15
9.39536e-15
9.23781e-15
9.07236e-15
8.92025e-15
8.75165e-15
8.59645e-15
8.42448e-15
8.26625e-15
8.08528e-15
7.92379e-15
7.73734e-15
7.56224e-15
7.34009e-15
7.14425e-15
6.94125e-15
6.76273e-15
6.59472e-15
6.49926e-15
6.32753e-15
6.14545e-15
5.92218e-15
5.71549e-15
5.49157e-15
5.32606e-15
5.13828e-15
4.98476e-15
4.80223e-15
4.64191e-15
4.48413e-15
4.34554e-15
4.17484e-15
4.0179e-15
3.85399e-15
3.69736e-15
3.52839e-15
3.35913e-15
3.1806e-15
2.98298e-15
2.76637e-15
2.5373e-15
2.26859e-15
1.97219e-15
1.58572e-15
9.85726e-16
5.09353e-16
1.29064e-14
1.22327e-14
1.16519e-14
1.12788e-14
1.0968e-14
1.06957e-14
1.04601e-14
1.02492e-14
1.00573e-14
9.87667e-15
9.70581e-15
9.53848e-15
9.3763e-15
9.21203e-15
9.05024e-15
8.8829e-15
8.71714e-15
8.54335e-15
8.37131e-15
8.18946e-15
8.01061e-15
7.82057e-15
7.64305e-15
7.5036e-15
7.40299e-15
7.26056e-15
7.04274e-15
6.71802e-15
6.36304e-15
6.03914e-15
5.82389e-15
5.68141e-15
5.5823e-15
5.4415e-15
5.2663e-15
5.07351e-15
4.89684e-15
4.71217e-15
4.54151e-15
4.36534e-15
4.2016e-15
4.03056e-15
3.8713e-15
3.70479e-15
3.54466e-15
3.37494e-15
3.20633e-15
3.02379e-15
2.83257e-15
2.61991e-15
2.38696e-15
2.11495e-15
1.80323e-15
1.43038e-15
8.50762e-16
1.77672e-16
)
;

boundaryField
{
    top
    {
        type            zeroGradient;
    }
    bottom
    {
        type            zeroGradient;
    }
    rotatingWall
    {
        type            zeroGradient;
    }
    wall
    {
        type            zeroGradient;
    }
    frontAndBack
    {
        type            empty;
    }
}


// ************************************************************************* //
