/*--------------------------------*- C++ -*----------------------------------*\
| =========                 |                                                 |
| \\      /  F ield         | OpenFOAM: The Open Source CFD Toolbox           |
|  \\    /   O peration     | Version:  5.0                                   |
|   \\  /    A nd           | Web:      www.OpenFOAM.org                      |
|    \\/     M anipulation  |                                                 |
\*---------------------------------------------------------------------------*/
FoamFile
{
    version     2.0;
    format      ascii;
    class       volScalarField;
    location    "80";
    object      p;
}
// * * * * * * * * * * * * * * * * * * * * * * * * * * * * * * * * * * * * * //

dimensions      [0 2 -2 0 0 0 0];

internalField   nonuniform List<scalar> 
1568
(
1.43221e-10
2.55299e-10
3.34968e-10
2.39203e-10
2.47398e-10
3.05389e-10
3.14497e-10
3.18414e-10
3.33815e-10
3.52155e-10
3.6866e-10
3.87001e-10
4.07474e-10
4.28891e-10
4.4993e-10
4.71087e-10
4.89226e-10
5.09312e-10
5.32731e-10
5.60125e-10
5.86594e-10
6.16523e-10
6.49746e-10
6.85609e-10
7.17591e-10
7.4781e-10
7.71288e-10
7.95615e-10
8.17394e-10
8.42219e-10
8.65168e-10
8.89408e-10
9.09692e-10
9.31894e-10
9.50247e-10
9.69419e-10
9.84224e-10
1.00022e-09
1.0128e-09
1.02577e-09
1.03588e-09
1.04704e-09
1.05586e-09
1.06582e-09
1.07383e-09
1.08142e-09
1.08695e-09
1.09254e-09
1.09649e-09
1.10105e-09
1.10332e-09
1.10705e-09
1.1258e-09
1.11915e-09
1.13591e-09
1.13548e-09
2.9402e-10
-1.44276e-09
6.97183e-10
6.69155e-10
1.86153e-10
3.64006e-10
4.50078e-10
4.33537e-10
4.37206e-10
4.65855e-10
4.86109e-10
4.99926e-10
5.09369e-10
5.25919e-10
5.50874e-10
5.80456e-10
6.04291e-10
6.3346e-10
6.53829e-10
6.76518e-10
6.89273e-10
7.10977e-10
7.17742e-10
7.35501e-10
7.45577e-10
7.74316e-10
7.83592e-10
8.08361e-10
8.10554e-10
8.3815e-10
8.36331e-10
8.48158e-10
8.38044e-10
8.53972e-10
8.51951e-10
8.76045e-10
8.74083e-10
8.94434e-10
8.96581e-10
9.13699e-10
9.17639e-10
9.38079e-10
9.39374e-10
9.47575e-10
9.44738e-10
9.53724e-10
9.58978e-10
9.71379e-10
9.7414e-10
9.90406e-10
1.00071e-09
1.00659e-09
1.04037e-09
9.17552e-10
1.13449e-09
1.12033e-09
4.19052e-10
1.81126e-10
3.56404e-10
4.10478e-10
1.1032e-10
2.385e-10
3.31004e-10
3.26976e-10
3.13442e-10
3.11972e-10
3.50936e-10
3.83248e-10
3.96062e-10
4.13596e-10
4.37032e-10
4.53566e-10
4.75318e-10
4.95063e-10
5.18977e-10
5.41699e-10
5.71451e-10
6.012e-10
6.35513e-10
6.62149e-10
6.9571e-10
7.20325e-10
7.47274e-10
7.71281e-10
8.01591e-10
8.23762e-10
8.52716e-10
8.89406e-10
9.39165e-10
9.67756e-10
9.89813e-10
1.00395e-09
1.02485e-09
1.03421e-09
1.04883e-09
1.05827e-09
1.06005e-09
1.05526e-09
1.06849e-09
1.07819e-09
1.09013e-09
1.09746e-09
1.10779e-09
1.116e-09
1.1141e-09
1.10113e-09
1.11889e-09
1.11324e-09
1.14731e-09
1.11137e-09
1.09892e-09
1.09348e-09
3.76936e-10
6.01765e-10
6.72358e-10
3.44395e-10
2.61742e-10
3.98806e-10
4.34175e-10
4.22008e-10
4.35549e-10
4.53889e-10
4.66922e-10
4.77736e-10
4.92006e-10
5.14477e-10
5.29399e-10
5.48158e-10
5.64627e-10
5.7987e-10
5.93345e-10
6.16681e-10
6.36098e-10
6.58604e-10
6.7566e-10
6.98206e-10
7.17935e-10
7.43564e-10
7.61639e-10
7.85148e-10
8.0203e-10
8.21183e-10
8.30614e-10
8.41168e-10
8.47973e-10
8.58479e-10
8.70776e-10
8.88368e-10
9.02091e-10
9.18283e-10
9.30228e-10
9.50463e-10
9.65826e-10
9.84376e-10
9.97683e-10
1.01038e-09
1.01593e-09
1.02162e-09
1.02709e-09
1.03726e-09
1.04087e-09
1.04414e-09
1.05339e-09
1.06086e-09
1.10585e-09
1.0114e-09
1.13319e-09
1.07785e-09
3.28375e-10
2.93506e-10
3.26761e-10
2.5074e-10
3.60268e-10
4.64846e-10
4.61018e-10
4.47552e-10
4.62198e-10
4.87004e-10
5.00872e-10
5.09556e-10
5.20174e-10
5.35121e-10
5.49841e-10
5.67616e-10
5.87514e-10
6.07649e-10
6.2681e-10
6.45409e-10
6.62978e-10
6.794e-10
6.96644e-10
7.14709e-10
7.33095e-10
7.51821e-10
7.69165e-10
7.81856e-10
7.95757e-10
8.09902e-10
8.23533e-10
8.32668e-10
8.41173e-10
8.48546e-10
8.6399e-10
8.78128e-10
8.90306e-10
9.00886e-10
9.1215e-10
9.23408e-10
9.34101e-10
9.43735e-10
9.52618e-10
9.5883e-10
9.63564e-10
9.68249e-10
9.77402e-10
9.89115e-10
9.90933e-10
9.94018e-10
1.012e-09
9.89311e-10
1.0204e-09
1.07159e-09
1.01146e-09
1.04587e-09
3.67047e-10
3.0727e-10
3.10758e-10
3.43626e-10
4.2947e-10
4.42144e-10
4.23858e-10
4.27286e-10
4.3949e-10
4.55382e-10
4.69709e-10
4.83947e-10
4.99025e-10
5.16636e-10
5.33523e-10
5.49336e-10
5.66152e-10
5.84622e-10
6.03316e-10
6.21016e-10
6.38798e-10
6.59051e-10
6.78838e-10
6.98501e-10
7.16854e-10
7.35591e-10
7.54022e-10
7.72314e-10
7.90394e-10
8.1031e-10
8.28691e-10
8.47495e-10
8.66531e-10
8.84008e-10
8.98759e-10
9.12384e-10
9.24195e-10
9.36444e-10
9.46658e-10
9.56155e-10
9.63973e-10
9.72097e-10
9.79234e-10
9.84674e-10
9.89766e-10
9.95546e-10
1.00357e-09
1.01296e-09
1.01283e-09
1.01274e-09
1.02573e-09
1.01724e-09
1.03131e-09
9.52074e-10
1.04764e-09
1.03207e-09
4.09025e-10
4.43541e-10
4.11288e-10
4.259e-10
4.61732e-10
4.41939e-10
4.2387e-10
4.39492e-10
4.58789e-10
4.68525e-10
4.79424e-10
4.92948e-10
5.07119e-10
5.21721e-10
5.36492e-10
5.51716e-10
5.67558e-10
5.83397e-10
6.0031e-10
6.17845e-10
6.36484e-10
6.55459e-10
6.74789e-10
6.93791e-10
7.13207e-10
7.31961e-10
7.51283e-10
7.7007e-10
7.89466e-10
8.0733e-10
8.23532e-10
8.40066e-10
8.59383e-10
8.76639e-10
8.90887e-10
9.03347e-10
9.17778e-10
9.31003e-10
9.42953e-10
9.53849e-10
9.64544e-10
9.74386e-10
9.84564e-10
9.93803e-10
1.00126e-09
1.0069e-09
1.01497e-09
1.02301e-09
1.01752e-09
1.01586e-09
1.0407e-09
1.01641e-09
1.01759e-09
1.05203e-09
1.02149e-09
1.00772e-09
4.37276e-10
5.07312e-10
4.50101e-10
4.38735e-10
4.72864e-10
4.62031e-10
4.49552e-10
4.65212e-10
4.85575e-10
4.92416e-10
5.01405e-10
5.13031e-10
5.25813e-10
5.38854e-10
5.51995e-10
5.66472e-10
5.81465e-10
5.9663e-10
6.12285e-10
6.28872e-10
6.45796e-10
6.63471e-10
6.80602e-10
6.98275e-10
7.15996e-10
7.34027e-10
7.51348e-10
7.68987e-10
7.86245e-10
8.02227e-10
8.1745e-10
8.32799e-10
8.46624e-10
8.60738e-10
8.74886e-10
8.88439e-10
9.0165e-10
9.14773e-10
9.26569e-10
9.3825e-10
9.48805e-10
9.58575e-10
9.68528e-10
9.77901e-10
9.83711e-10
9.88222e-10
9.96237e-10
1.00473e-09
1.00094e-09
1.00098e-09
1.01856e-09
1.00799e-09
1.0196e-09
9.60103e-10
1.01954e-09
9.91146e-10
4.60365e-10
5.16441e-10
4.57932e-10
4.43798e-10
4.87198e-10
4.81734e-10
4.7289e-10
4.8532e-10
5.01107e-10
5.09331e-10
5.16733e-10
5.23711e-10
5.3554e-10
5.48885e-10
5.61436e-10
5.75041e-10
5.89308e-10
6.04097e-10
6.1973e-10
6.35464e-10
6.51232e-10
6.68095e-10
6.84419e-10
7.0076e-10
7.17541e-10
7.34174e-10
7.50918e-10
7.67355e-10
7.83617e-10
7.98848e-10
8.14736e-10
8.29797e-10
8.43803e-10
8.57377e-10
8.7167e-10
8.84984e-10
8.97521e-10
9.09115e-10
9.20558e-10
9.31511e-10
9.41643e-10
9.50706e-10
9.59703e-10
9.67304e-10
9.72007e-10
9.76497e-10
9.85351e-10
9.9286e-10
9.87511e-10
9.86272e-10
1.00563e-09
9.85688e-10
9.9188e-10
9.95487e-10
9.77656e-10
9.72249e-10
4.88178e-10
5.41928e-10
4.7085e-10
4.58423e-10
5.07205e-10
4.99575e-10
4.89783e-10
4.99776e-10
5.09099e-10
5.15531e-10
5.23295e-10
5.31886e-10
5.42749e-10
5.54089e-10
5.65539e-10
5.78881e-10
5.92514e-10
6.06609e-10
6.21444e-10
6.37489e-10
6.52378e-10
6.67539e-10
6.83561e-10
7.00141e-10
7.16343e-10
7.32745e-10
7.49115e-10
7.65291e-10
7.81023e-10
7.97183e-10
8.12705e-10
8.27928e-10
8.42319e-10
8.5705e-10
8.71317e-10
8.84548e-10
8.97061e-10
9.09137e-10
9.20408e-10
9.31022e-10
9.40533e-10
9.49484e-10
9.58051e-10
9.66044e-10
9.71094e-10
9.75337e-10
9.83398e-10
9.9128e-10
9.85947e-10
9.83053e-10
9.98635e-10
9.81263e-10
9.94637e-10
9.60019e-10
9.70975e-10
9.60917e-10
5.14092e-10
5.67662e-10
4.90261e-10
4.81138e-10
5.2817e-10
5.15225e-10
5.01115e-10
5.09762e-10
5.19482e-10
5.23856e-10
5.28537e-10
5.39157e-10
5.49324e-10
5.59137e-10
5.70506e-10
5.82821e-10
5.95659e-10
6.09074e-10
6.23012e-10
6.36961e-10
6.52557e-10
6.68029e-10
6.84184e-10
6.99603e-10
7.15973e-10
7.319e-10
7.47621e-10
7.62658e-10
7.78639e-10
7.94771e-10
8.10108e-10
8.25187e-10
8.40238e-10
8.54988e-10
8.69296e-10
8.82496e-10
8.95072e-10
9.07066e-10
9.18545e-10
9.2914e-10
9.38911e-10
9.4797e-10
9.56964e-10
9.65264e-10
9.70703e-10
9.74236e-10
9.82638e-10
9.90669e-10
9.84421e-10
9.80803e-10
9.9687e-10
9.78834e-10
9.80888e-10
9.63859e-10
9.67033e-10
9.5011e-10
5.37405e-10
5.93533e-10
5.12211e-10
4.99817e-10
5.43526e-10
5.28838e-10
5.12826e-10
5.20212e-10
5.29773e-10
5.34037e-10
5.3809e-10
5.46233e-10
5.55056e-10
5.65316e-10
5.77337e-10
5.87623e-10
5.98876e-10
6.11849e-10
6.25631e-10
6.3853e-10
6.53736e-10
6.69397e-10
6.84259e-10
6.98927e-10
7.15451e-10
7.31696e-10
7.4655e-10
7.60686e-10
7.76288e-10
7.92598e-10
8.08309e-10
8.23381e-10
8.37895e-10
8.52231e-10
8.65944e-10
8.79301e-10
8.91927e-10
9.04126e-10
9.15579e-10
9.26368e-10
9.36218e-10
9.45836e-10
9.55087e-10
9.63367e-10
9.68702e-10
9.72009e-10
9.79928e-10
9.88233e-10
9.81364e-10
9.7772e-10
9.93868e-10
9.72349e-10
9.78781e-10
9.67057e-10
9.45395e-10
9.40004e-10
5.55726e-10
6.0622e-10
5.297e-10
5.14955e-10
5.54392e-10
5.4011e-10
5.23702e-10
5.30085e-10
5.38433e-10
5.42414e-10
5.46415e-10
5.53287e-10
5.61818e-10
5.7113e-10
5.81413e-10
5.9165e-10
6.03145e-10
6.15925e-10
6.29031e-10
6.42267e-10
6.55768e-10
6.69445e-10
6.81649e-10
6.94161e-10
7.09027e-10
7.2637e-10
7.44314e-10
7.62582e-10
7.80253e-10
7.9554e-10
8.09211e-10
8.22686e-10
8.36339e-10
8.50506e-10
8.64115e-10
8.76401e-10
8.89405e-10
9.01871e-10
9.13539e-10
9.24528e-10
9.34532e-10
9.43774e-10
9.52793e-10
9.60618e-10
9.66343e-10
9.70313e-10
9.78082e-10
9.86249e-10
9.80028e-10
9.7525e-10
9.91396e-10
9.77782e-10
9.74414e-10
9.3529e-10
9.69792e-10
9.37343e-10
5.70371e-10
6.17421e-10
5.40955e-10
5.26237e-10
5.63631e-10
5.49428e-10
5.32492e-10
5.3804e-10
5.45603e-10
5.48397e-10
5.51564e-10
5.57688e-10
5.66015e-10
5.74295e-10
5.82888e-10
5.93453e-10
6.05263e-10
6.16923e-10
6.29184e-10
6.42657e-10
6.56483e-10
6.71306e-10
6.87284e-10
7.04793e-10
7.208e-10
7.34546e-10
7.45093e-10
7.55346e-10
7.68975e-10
7.86068e-10
8.03199e-10
8.1925e-10
8.33785e-10
8.47923e-10
8.62411e-10
8.75618e-10
8.8891e-10
9.0109e-10
9.12784e-10
9.24145e-10
9.34337e-10
9.43798e-10
9.53278e-10
9.61224e-10
9.66445e-10
9.70707e-10
9.78639e-10
9.86761e-10
9.79964e-10
9.75503e-10
9.922e-10
9.6987e-10
9.77424e-10
9.72391e-10
9.40742e-10
9.32685e-10
5.80093e-10
6.25228e-10
5.49668e-10
5.34471e-10
5.71523e-10
5.56816e-10
5.39286e-10
5.44432e-10
5.51467e-10
5.53531e-10
5.56245e-10
5.62108e-10
5.69614e-10
5.77777e-10
5.86464e-10
5.96441e-10
6.06926e-10
6.1778e-10
6.29891e-10
6.43077e-10
6.56555e-10
6.70889e-10
6.86771e-10
7.03607e-10
7.18405e-10
7.31454e-10
7.4366e-10
7.55108e-10
7.68461e-10
7.85014e-10
8.01467e-10
8.17387e-10
8.32541e-10
8.46739e-10
8.60931e-10
8.75493e-10
8.88295e-10
9.0055e-10
9.12551e-10
9.23757e-10
9.33951e-10
9.437e-10
9.53784e-10
9.62625e-10
9.68034e-10
9.71845e-10
9.80223e-10
9.88767e-10
9.82537e-10
9.76392e-10
9.91552e-10
9.87195e-10
9.83754e-10
9.09613e-10
9.83174e-10
9.38852e-10
5.8685e-10
6.41224e-10
5.57586e-10
5.39111e-10
5.7764e-10
5.62035e-10
5.44088e-10
5.48845e-10
5.55563e-10
5.57459e-10
5.60127e-10
5.65545e-10
5.72519e-10
5.80424e-10
5.89391e-10
5.98871e-10
6.08946e-10
6.20002e-10
6.31831e-10
6.43728e-10
6.56316e-10
6.69316e-10
6.81145e-10
6.92395e-10
7.05227e-10
7.21164e-10
7.41097e-10
7.6097e-10
7.78401e-10
7.91996e-10
8.03905e-10
8.17249e-10
8.32493e-10
8.4702e-10
8.60761e-10
8.74674e-10
8.87492e-10
9.00312e-10
9.12956e-10
9.24163e-10
9.34604e-10
9.44458e-10
9.54121e-10
9.63097e-10
9.69082e-10
9.73402e-10
9.8229e-10
9.91723e-10
9.85546e-10
9.80802e-10
9.98728e-10
9.79226e-10
9.84069e-10
9.83734e-10
9.56405e-10
9.4039e-10
5.88887e-10
6.36165e-10
5.56865e-10
5.41686e-10
5.81883e-10
5.65063e-10
5.46892e-10
5.51687e-10
5.58196e-10
5.59878e-10
5.61849e-10
5.66798e-10
5.73435e-10
5.80972e-10
5.89078e-10
5.98085e-10
6.0799e-10
6.18963e-10
6.30429e-10
6.42448e-10
6.55011e-10
6.68429e-10
6.82123e-10
6.9673e-10
7.11586e-10
7.26612e-10
7.41436e-10
7.562e-10
7.71267e-10
7.86124e-10
8.00549e-10
8.16045e-10
8.31442e-10
8.46309e-10
8.60552e-10
8.74812e-10
8.88171e-10
9.01298e-10
9.13917e-10
9.25909e-10
9.36852e-10
9.47299e-10
9.57356e-10
9.66528e-10
9.72757e-10
9.77553e-10
9.86891e-10
9.96547e-10
9.90905e-10
9.85336e-10
1.00245e-09
1.00191e-09
9.92663e-10
9.1209e-10
1.01394e-09
9.55488e-10
5.88556e-10
6.40482e-10
5.61387e-10
5.42512e-10
5.83774e-10
5.66696e-10
5.48159e-10
5.52689e-10
5.59091e-10
5.60588e-10
5.6252e-10
5.67225e-10
5.7368e-10
5.80843e-10
5.88863e-10
5.97695e-10
6.07402e-10
6.17886e-10
6.29286e-10
6.41172e-10
6.53714e-10
6.66664e-10
6.8045e-10
6.94785e-10
7.09757e-10
7.24524e-10
7.39455e-10
7.54061e-10
7.69453e-10
7.84685e-10
8.00237e-10
8.15885e-10
8.31646e-10
8.465e-10
8.61396e-10
8.75689e-10
8.89726e-10
9.03133e-10
9.16258e-10
9.28291e-10
9.39612e-10
9.50428e-10
9.61259e-10
9.70927e-10
9.77612e-10
9.828e-10
9.9254e-10
1.00266e-09
9.97177e-10
9.94122e-10
1.01524e-09
9.93906e-10
9.9949e-10
1.0147e-09
9.72129e-10
9.63409e-10
5.84808e-10
6.28237e-10
5.58477e-10
5.38468e-10
5.82671e-10
5.66807e-10
5.48601e-10
5.53116e-10
5.59586e-10
5.61216e-10
5.63027e-10
5.6758e-10
5.7395e-10
5.81221e-10
5.89155e-10
5.9798e-10
6.07391e-10
6.17748e-10
6.28698e-10
6.4031e-10
6.52434e-10
6.65397e-10
6.78701e-10
6.92633e-10
7.071e-10
7.22217e-10
7.37391e-10
7.52874e-10
7.6847e-10
7.84366e-10
7.9984e-10
8.15577e-10
8.31147e-10
8.46389e-10
8.61466e-10
8.76242e-10
8.90522e-10
9.0435e-10
9.17733e-10
9.30262e-10
9.42073e-10
9.53255e-10
9.64334e-10
9.74276e-10
9.81675e-10
9.87255e-10
9.97813e-10
1.00838e-09
1.00441e-09
1.00074e-09
1.01918e-09
1.02199e-09
1.01811e-09
9.28449e-10
1.04611e-09
9.87622e-10
5.76783e-10
6.19112e-10
5.6113e-10
5.33693e-10
5.78568e-10
5.656e-10
5.48727e-10
5.53618e-10
5.60336e-10
5.6204e-10
5.63742e-10
5.68455e-10
5.74906e-10
5.82201e-10
5.89628e-10
5.97875e-10
6.07235e-10
6.17787e-10
6.28539e-10
6.4022e-10
6.52148e-10
6.65354e-10
6.78006e-10
6.92116e-10
7.06129e-10
7.21883e-10
7.36799e-10
7.5272e-10
7.67413e-10
7.83443e-10
7.97997e-10
8.13886e-10
8.28464e-10
8.44405e-10
8.58979e-10
8.749e-10
8.88724e-10
9.0383e-10
9.1681e-10
9.30612e-10
9.42011e-10
9.54392e-10
9.65155e-10
9.77111e-10
9.84793e-10
9.92296e-10
1.00346e-09
1.01634e-09
1.01162e-09
1.01168e-09
1.03625e-09
1.01614e-09
1.02884e-09
1.06019e-09
1.00889e-09
1.00147e-09
5.65869e-10
6.01958e-10
5.5936e-10
5.27092e-10
5.73402e-10
5.61528e-10
5.45289e-10
5.50034e-10
5.56976e-10
5.59059e-10
5.61478e-10
5.65772e-10
5.72103e-10
5.78102e-10
5.8658e-10
5.94406e-10
6.04725e-10
6.13643e-10
6.25899e-10
6.36475e-10
6.49922e-10
6.61595e-10
6.76382e-10
6.89378e-10
7.05367e-10
7.18814e-10
7.3552e-10
7.48922e-10
7.66148e-10
7.80667e-10
7.98167e-10
8.12457e-10
8.30254e-10
8.44466e-10
8.62216e-10
8.76132e-10
8.93419e-10
9.06403e-10
9.22683e-10
9.34363e-10
9.49342e-10
9.60311e-10
9.74123e-10
9.84491e-10
9.94526e-10
1.00052e-09
1.01462e-09
1.02561e-09
1.02384e-09
1.02254e-09
1.04631e-09
1.0579e-09
1.05378e-09
9.37582e-10
1.10124e-09
1.0341e-09
5.52637e-10
5.89284e-10
5.55633e-10
5.13418e-10
5.56603e-10
5.45452e-10
5.30206e-10
5.35276e-10
5.41485e-10
5.43505e-10
5.45738e-10
5.5057e-10
5.57089e-10
5.62902e-10
5.69883e-10
5.76806e-10
5.87221e-10
5.96827e-10
6.09055e-10
6.19713e-10
6.33865e-10
6.45915e-10
6.6205e-10
6.74771e-10
6.92999e-10
7.06923e-10
7.27026e-10
7.41598e-10
7.63253e-10
7.7856e-10
8.00469e-10
8.16348e-10
8.39604e-10
8.53205e-10
8.74086e-10
8.87381e-10
9.08438e-10
9.20686e-10
9.40206e-10
9.51389e-10
9.69939e-10
9.81181e-10
9.97936e-10
1.00688e-09
1.01851e-09
1.02322e-09
1.03907e-09
1.04877e-09
1.04762e-09
1.04712e-09
1.07547e-09
1.04843e-09
1.05939e-09
1.1095e-09
1.06829e-09
1.05641e-09
5.3784e-10
5.7634e-10
5.39966e-10
5.17658e-10
5.57962e-10
5.45609e-10
5.31897e-10
5.38862e-10
5.41957e-10
5.45103e-10
5.45119e-10
5.52233e-10
5.53857e-10
5.65072e-10
5.6817e-10
5.83376e-10
5.85456e-10
6.02662e-10
6.05678e-10
6.26736e-10
6.29901e-10
6.53966e-10
6.56598e-10
6.83405e-10
6.86483e-10
7.16001e-10
7.18933e-10
7.50358e-10
7.53284e-10
7.86146e-10
7.88345e-10
8.22593e-10
8.2498e-10
8.60104e-10
8.61133e-10
8.95756e-10
8.9545e-10
9.28632e-10
9.28285e-10
9.59681e-10
9.57454e-10
9.85478e-10
9.84177e-10
1.01164e-09
1.01146e-09
1.03221e-09
1.03211e-09
1.05423e-09
1.04546e-09
1.05768e-09
1.07061e-09
1.08176e-09
1.09875e-09
1.01494e-09
1.1247e-09
1.09306e-09
5.23409e-10
5.71578e-10
5.16339e-10
5.25525e-10
5.73249e-10
5.62145e-10
5.54855e-10
5.63723e-10
5.72182e-10
5.74516e-10
5.7896e-10
5.83086e-10
5.92309e-10
5.98257e-10
6.07878e-10
6.14311e-10
6.25946e-10
6.31452e-10
6.4505e-10
6.51125e-10
6.67582e-10
6.74623e-10
6.92108e-10
6.99936e-10
7.17468e-10
7.24688e-10
7.41391e-10
7.47962e-10
7.65876e-10
7.71433e-10
7.86444e-10
7.89663e-10
8.05699e-10
8.1462e-10
8.37652e-10
8.50447e-10
8.72938e-10
8.8393e-10
9.05001e-10
9.18122e-10
9.37503e-10
9.46569e-10
9.62303e-10
9.70309e-10
9.83704e-10
9.9168e-10
1.01096e-09
1.02615e-09
1.03044e-09
1.03812e-09
1.07741e-09
1.06646e-09
1.06131e-09
1.14982e-09
1.08763e-09
1.11499e-09
5.07432e-10
5.33479e-10
4.66209e-10
4.82594e-10
5.29823e-10
5.18017e-10
5.1034e-10
5.19055e-10
5.31946e-10
5.3223e-10
5.38406e-10
5.38412e-10
5.51305e-10
5.48347e-10
5.60622e-10
5.56684e-10
5.78417e-10
5.7433e-10
6.00943e-10
5.95191e-10
6.26639e-10
6.19632e-10
6.56886e-10
6.48596e-10
6.90636e-10
6.81097e-10
7.28924e-10
7.18105e-10
7.67569e-10
7.53075e-10
8.00805e-10
7.80931e-10
8.29576e-10
8.14601e-10
8.72572e-10
8.62607e-10
9.20003e-10
9.05623e-10
9.65335e-10
9.56211e-10
1.01068e-09
1.00129e-09
1.04825e-09
1.03274e-09
1.06956e-09
1.05831e-09
1.10096e-09
1.0922e-09
1.1066e-09
1.10244e-09
1.15356e-09
1.14141e-09
1.15662e-09
1.15223e-09
1.1918e-09
1.15077e-09
4.96408e-10
5.59696e-10
5.29406e-10
5.14216e-10
5.31157e-10
5.07509e-10
4.8806e-10
4.95516e-10
4.94716e-10
5.00727e-10
4.95167e-10
5.07931e-10
5.03803e-10
5.24093e-10
5.17505e-10
5.44795e-10
5.36584e-10
5.71522e-10
5.58129e-10
6.00067e-10
5.81446e-10
6.29573e-10
6.07238e-10
6.65879e-10
6.40284e-10
7.03065e-10
6.75278e-10
7.4397e-10
7.15872e-10
7.98241e-10
7.82313e-10
8.8445e-10
8.71764e-10
9.58337e-10
9.17281e-10
9.86261e-10
9.4253e-10
1.01034e-09
9.69899e-10
1.01718e-09
9.71554e-10
1.03443e-09
1.00839e-09
1.06473e-09
1.04009e-09
1.08741e-09
1.06927e-09
1.10497e-09
1.07963e-09
1.1077e-09
1.10979e-09
1.09764e-09
1.09234e-09
1.1214e-09
1.16029e-09
1.17324e-09
4.77414e-10
4.79048e-10
5.21025e-10
4.96882e-10
5.24095e-10
5.34157e-10
5.41159e-10
5.44941e-10
5.4919e-10
5.50472e-10
5.58062e-10
5.60333e-10
5.68718e-10
5.72661e-10
5.86575e-10
5.89743e-10
6.02492e-10
6.04812e-10
6.20585e-10
6.25736e-10
6.48324e-10
6.56066e-10
6.78428e-10
6.83727e-10
7.05934e-10
7.09878e-10
7.37004e-10
7.40599e-10
7.66377e-10
7.65612e-10
7.84009e-10
7.73665e-10
7.91639e-10
7.93371e-10
8.2497e-10
8.35629e-10
8.7164e-10
8.84828e-10
9.16709e-10
9.33204e-10
9.66619e-10
9.77242e-10
9.97897e-10
1.00527e-09
1.02478e-09
1.03391e-09
1.05431e-09
1.06583e-09
1.07692e-09
1.09455e-09
1.13295e-09
1.13015e-09
1.13166e-09
1.13143e-09
1.2591e-09
1.21216e-09
4.73002e-10
4.80849e-10
4.91568e-10
4.91702e-10
4.94366e-10
4.94195e-10
4.95e-10
4.96727e-10
4.99404e-10
5.02046e-10
5.06159e-10
5.10143e-10
5.15809e-10
5.20968e-10
5.28511e-10
5.35583e-10
5.45892e-10
5.55298e-10
5.67882e-10
5.7861e-10
5.93143e-10
6.05848e-10
6.22937e-10
6.37437e-10
6.56886e-10
6.7398e-10
6.9675e-10
7.16371e-10
7.42153e-10
7.62705e-10
7.88037e-10
8.11421e-10
8.42506e-10
8.69362e-10
9.00513e-10
9.2323e-10
9.47252e-10
9.65494e-10
9.87811e-10
1.00359e-09
1.02123e-09
1.03549e-09
1.05465e-09
1.06981e-09
1.08656e-09
1.09888e-09
1.1129e-09
1.12373e-09
1.13387e-09
1.14092e-09
1.15194e-09
1.16362e-09
1.17635e-09
1.18296e-09
1.20971e-09
1.23216e-09
)
;

boundaryField
{
    top
    {
        type            zeroGradient;
    }
    bottom
    {
        type            zeroGradient;
    }
    rotatingWall
    {
        type            zeroGradient;
    }
    wall
    {
        type            zeroGradient;
    }
    frontAndBack
    {
        type            empty;
    }
}


// ************************************************************************* //
