/*--------------------------------*- C++ -*----------------------------------*\
| =========                 |                                                 |
| \\      /  F ield         | OpenFOAM: The Open Source CFD Toolbox           |
|  \\    /   O peration     | Version:  5.0                                   |
|   \\  /    A nd           | Web:      www.OpenFOAM.org                      |
|    \\/     M anipulation  |                                                 |
\*---------------------------------------------------------------------------*/
FoamFile
{
    version     2.0;
    format      ascii;
    class       volScalarField;
    location    "80";
    object      p;
}
// * * * * * * * * * * * * * * * * * * * * * * * * * * * * * * * * * * * * * //

dimensions      [0 2 -2 0 0 0 0];

internalField   nonuniform List<scalar> 
7000
(
1.45461e-06
-0.000391082
-0.000565033
-0.000566931
-0.000561812
-0.000574455
-0.000577911
-0.000565445
-0.000544087
-0.000519687
-0.000496284
-0.000469906
-0.000426173
-0.000378948
3.65593e-05
-0.000379201
-0.000565726
-0.000572168
-0.000570431
-0.000585686
-0.000591817
-0.000581408
-0.000560403
-0.000533482
-0.000501487
-0.000458348
-0.000398209
-0.000342144
3.91061e-05
-0.000382507
-0.000568823
-0.000574039
-0.000574501
-0.000592702
-0.000601032
-0.000591745
-0.000569589
-0.000536796
-0.000491974
-0.00043375
-0.00036771
-0.000314812
4.21489e-05
-0.000379067
-0.000565596
-0.00057216
-0.000575124
-0.000595782
-0.000606023
-0.000598203
-0.000576252
-0.000541237
-0.000491349
-0.000427167
-0.000358095
-0.00030821
4.58492e-05
-0.000375519
-0.000563205
-0.000571056
-0.000575422
-0.000597521
-0.000609111
-0.000602698
-0.000581762
-0.000546443
-0.000494215
-0.000426491
-0.000355674
-0.000307846
4.81677e-05
-0.000372594
-0.000560751
-0.000569448
-0.000574753
-0.00059796
-0.000610738
-0.000605627
-0.000585833
-0.000550831
-0.000497542
-0.000427796
-0.000355747
-0.000308525
4.95689e-05
-0.000370085
-0.000558418
-0.000567918
-0.00057398
-0.000598057
-0.000611868
-0.000607833
-0.000588972
-0.000554393
-0.000500632
-0.000429608
-0.00035642
-0.000308952
5.10595e-05
-0.000367553
-0.000556159
-0.000566557
-0.000573321
-0.000598078
-0.00061269
-0.000609474
-0.000591307
-0.000557075
-0.000503058
-0.000431157
-0.00035696
-0.000309037
5.30226e-05
-0.000364849
-0.000553968
-0.000565354
-0.000572772
-0.00059811
-0.000613357
-0.000610727
-0.000593011
-0.000558988
-0.000504769
-0.000432204
-0.000357169
-0.000308766
5.54693e-05
-0.000361992
-0.00055186
-0.000564235
-0.000572237
-0.000598081
-0.000613837
-0.000611605
-0.000594132
-0.000560162
-0.00050571
-0.000432577
-0.00035685
-0.000307984
5.82944e-05
-0.000359088
-0.000549923
-0.000563215
-0.000571686
-0.00059794
-0.000614089
-0.000612093
-0.00059468
-0.000560606
-0.000505842
-0.000432162
-0.000355814
-0.000306497
6.13285e-05
-0.000356288
-0.00054829
-0.00056241
-0.000571168
-0.000597693
-0.000614099
-0.000612166
-0.000594627
-0.000560288
-0.000505121
-0.000430895
-0.000353935
-0.000304156
6.44434e-05
-0.000353702
-0.000547045
-0.000561889
-0.000570744
-0.00059739
-0.000613896
-0.000611835
-0.000593965
-0.000559191
-0.000503527
-0.000428751
-0.000351206
-0.000300942
6.76148e-05
-0.00035136
-0.000546192
-0.000561658
-0.00057046
-0.000597078
-0.00061351
-0.00061113
-0.00059273
-0.000557351
-0.000501095
-0.000425773
-0.000347707
-0.000296982
7.08461e-05
-0.000349191
-0.000545701
-0.000561729
-0.000570352
-0.00059678
-0.00061297
-0.0006101
-0.000590998
-0.000554862
-0.000497932
-0.000422075
-0.000343573
-0.000292465
7.41788e-05
-0.000347143
-0.000545493
-0.000562063
-0.000570406
-0.000596507
-0.000612309
-0.000608808
-0.000588869
-0.000551861
-0.000494193
-0.000417826
-0.000338974
-0.000287583
7.75943e-05
-0.000345238
-0.000545482
-0.000562578
-0.000570574
-0.000596252
-0.000611555
-0.00060732
-0.000586453
-0.000548493
-0.000490061
-0.000413225
-0.000334115
-0.000282525
8.09477e-05
-0.000343506
-0.000545599
-0.000563195
-0.000570824
-0.000596023
-0.000610757
-0.000605721
-0.00058387
-0.000544927
-0.000485744
-0.000408501
-0.000329226
-0.000277513
8.41391e-05
-0.00034194
-0.000545761
-0.000563823
-0.0005711
-0.000595794
-0.00060995
-0.000604099
-0.000581253
-0.00054135
-0.00048147
-0.000403894
-0.000324543
-0.000272792
8.71099e-05
-0.00034051
-0.000545888
-0.00056439
-0.00057138
-0.000595577
-0.000609151
-0.000602523
-0.00057875
-0.00053797
-0.000477474
-0.00039964
-0.000320277
-0.000268556
8.97744e-05
-0.00033924
-0.000545939
-0.000564846
-0.000571636
-0.000595395
-0.000608425
-0.000601107
-0.000576534
-0.000535001
-0.000473981
-0.000395946
-0.000316608
-0.000264962
9.20712e-05
-0.000338152
-0.000545903
-0.000565166
-0.000571857
-0.000595294
-0.000607874
-0.000599983
-0.000574759
-0.000532613
-0.000471161
-0.000392963
-0.000313659
-0.000262111
9.39611e-05
-0.000337205
-0.000545774
-0.000565361
-0.000572077
-0.000595331
-0.000607581
-0.000599255
-0.000573535
-0.000530925
-0.000469131
-0.000390787
-0.000311498
-0.000260044
9.5366e-05
-0.000336404
-0.000545538
-0.000565416
-0.000572307
-0.000595551
-0.000607618
-0.000599011
-0.000572962
-0.000530024
-0.000467962
-0.000389465
-0.000310152
-0.000258786
9.62248e-05
-0.000335829
-0.000545212
-0.000565314
-0.000572521
-0.000595945
-0.000607997
-0.000599281
-0.000573079
-0.000529952
-0.000467682
-0.00038901
-0.000309629
-0.000258363
9.64806e-05
-0.000335526
-0.000544818
-0.000565069
-0.000572699
-0.000596475
-0.000608692
-0.00060005
-0.00057387
-0.000530682
-0.000468257
-0.000389388
-0.000309901
-0.000258725
9.61762e-05
-0.000335443
-0.000544335
-0.000564679
-0.000572824
-0.000597103
-0.000609654
-0.000601267
-0.000575278
-0.00053215
-0.000469614
-0.000390525
-0.000310894
-0.000259754
9.54952e-05
-0.000335424
-0.000543705
-0.000564132
-0.000572879
-0.000597784
-0.000610821
-0.000602846
-0.000577193
-0.000534234
-0.00047164
-0.000392323
-0.00031251
-0.000261325
9.46074e-05
-0.000335362
-0.000542899
-0.000563428
-0.000572842
-0.000598466
-0.000612102
-0.000604658
-0.00057946
-0.000536777
-0.000474194
-0.000394655
-0.000314627
-0.000263342
9.35916e-05
-0.000335234
-0.000541908
-0.000562557
-0.000572678
-0.000599077
-0.000613382
-0.000606564
-0.000581928
-0.00053962
-0.000477111
-0.000397365
-0.000317094
-0.000265706
9.25554e-05
-0.000334997
-0.00054075
-0.000561546
-0.00057238
-0.000599563
-0.00061458
-0.000608457
-0.000584454
-0.000542583
-0.000480191
-0.000400255
-0.00031973
-0.000268254
9.16414e-05
-0.000334615
-0.000539511
-0.000560488
-0.000571986
-0.00059992
-0.000615663
-0.000610244
-0.000586879
-0.000545464
-0.000483217
-0.000403117
-0.000322338
-0.000270782
9.09326e-05
-0.00033409
-0.000538258
-0.000559448
-0.000571542
-0.000600163
-0.000616599
-0.000611845
-0.000589072
-0.000548086
-0.000485992
-0.000405756
-0.000324731
-0.000273097
9.04371e-05
-0.000333462
-0.000537042
-0.000558467
-0.000571072
-0.000600286
-0.000617345
-0.00061319
-0.000590938
-0.000550323
-0.000488361
-0.000408007
-0.000326758
-0.000275054
9.01346e-05
-0.000332802
-0.000535949
-0.000557618
-0.000570626
-0.000600312
-0.000617884
-0.000614216
-0.000592384
-0.000552062
-0.000490197
-0.000409738
-0.000328291
-0.000276505
9.00462e-05
-0.00033215
-0.00053506
-0.00055697
-0.000570251
-0.000600268
-0.000618224
-0.000614903
-0.000593345
-0.000553207
-0.00049139
-0.000410837
-0.000329224
-0.000277331
9.01978e-05
-0.000331516
-0.000534412
-0.000556557
-0.000569976
-0.000600174
-0.000618371
-0.000615246
-0.000593803
-0.00055371
-0.00049187
-0.000411219
-0.00032947
-0.000277472
9.05632e-05
-0.000330956
-0.000534052
-0.000556387
-0.000569812
-0.000600051
-0.000618335
-0.000615238
-0.000593745
-0.000553557
-0.000491608
-0.00041085
-0.000328996
-0.000276905
9.12205e-05
-0.000330513
-0.000534013
-0.000556431
-0.000569751
-0.000599917
-0.000618126
-0.000614883
-0.000593175
-0.000552757
-0.00049062
-0.000409747
-0.00032782
-0.000275642
9.22259e-05
-0.000330196
-0.000534248
-0.000556645
-0.000569782
-0.00059977
-0.000617749
-0.000614195
-0.00059212
-0.000551351
-0.000488959
-0.00040797
-0.000326003
-0.00027375
9.34925e-05
-0.00032995
-0.000534675
-0.00055701
-0.000569882
-0.000599581
-0.000617203
-0.000613204
-0.000590637
-0.000549415
-0.000486717
-0.000405619
-0.00032365
-0.000271333
9.49711e-05
-0.000329679
-0.000535246
-0.000557546
-0.000570057
-0.000599341
-0.000616495
-0.000611946
-0.000588788
-0.000547038
-0.000484008
-0.000402819
-0.000320878
-0.000268515
9.66322e-05
-0.00032932
-0.000535881
-0.000558229
-0.000570331
-0.0005991
-0.000615679
-0.000610484
-0.000586655
-0.00054433
-0.000480962
-0.00039971
-0.000317825
-0.000265437
9.83838e-05
-0.000328877
-0.000536519
-0.000558973
-0.000570657
-0.000598857
-0.000614798
-0.000608896
-0.00058435
-0.000541432
-0.00047774
-0.00039646
-0.000314662
-0.000262269
0.000100125
-0.000328371
-0.000537108
-0.000559714
-0.000570972
-0.000598578
-0.000613873
-0.000607259
-0.000582006
-0.000538526
-0.000474542
-0.000393266
-0.000311589
-0.000259222
0.000101752
-0.000327838
-0.000537611
-0.000560385
-0.000571203
-0.000598223
-0.000612917
-0.000605647
-0.000579755
-0.000535785
-0.000471567
-0.000390326
-0.000308799
-0.000256508
0.00010317
-0.000327341
-0.000538055
-0.000560957
-0.000571344
-0.000597838
-0.000612012
-0.000604178
-0.000577742
-0.000533369
-0.000468976
-0.000387796
-0.000306433
-0.000254261
0.000104363
-0.000326893
-0.000538351
-0.000561342
-0.00057141
-0.000597482
-0.000611219
-0.000602951
-0.000576114
-0.000531419
-0.000466867
-0.000385734
-0.000304523
-0.000252482
0.000105388
-0.000327297
-0.000538623
-0.000561373
-0.000571479
-0.000597331
-0.000610618
-0.000602008
-0.000574992
-0.000530147
-0.00046546
-0.000384301
-0.000303143
-0.000251156
0.000107964
-0.000329738
-0.000539418
-0.000560863
-0.000571397
-0.00059745
-0.000610325
-0.000601345
-0.000574235
-0.000529388
-0.000464672
-0.000383489
-0.000302235
-0.000249975
-0.000390033
-0.000511341
-0.00057807
-0.000589482
-0.000593409
-0.000599973
-0.000598859
-0.000587014
-0.000567176
-0.000543278
-0.000518994
-0.000491733
-0.00044824
-0.000403469
-0.000380224
-0.000511041
-0.000578098
-0.000592708
-0.000601974
-0.000613302
-0.000615937
-0.000605833
-0.000585998
-0.000559916
-0.000529289
-0.000488164
-0.000430991
-0.000376667
-0.000382085
-0.000513811
-0.000577592
-0.000591499
-0.000602902
-0.000616504
-0.000621623
-0.000614396
-0.000595998
-0.000566589
-0.000525103
-0.000470865
-0.000408946
-0.00035679
-0.000380967
-0.000512925
-0.000575877
-0.000589917
-0.000602463
-0.000617377
-0.00062391
-0.000618522
-0.000601561
-0.000571951
-0.000527592
-0.000468949
-0.000404083
-0.000353992
-0.000377728
-0.000510244
-0.00057374
-0.000588445
-0.000601686
-0.000617323
-0.000624889
-0.000621068
-0.000606107
-0.000578017
-0.000533287
-0.000472026
-0.000404738
-0.00035557
-0.000374766
-0.000507354
-0.000571406
-0.000586771
-0.000600597
-0.000616874
-0.000625383
-0.000622871
-0.000609633
-0.000583034
-0.000538484
-0.000475665
-0.000406597
-0.000357375
-0.000372537
-0.000504789
-0.000569263
-0.000585289
-0.000599703
-0.000616594
-0.000625898
-0.000624416
-0.000612427
-0.000586921
-0.00054264
-0.000478874
-0.000408437
-0.00035861
-0.000370387
-0.000502299
-0.000567313
-0.000584096
-0.000599097
-0.000616528
-0.000626471
-0.000625744
-0.000614576
-0.000589755
-0.000545664
-0.000481295
-0.000409804
-0.000359343
-0.000367979
-0.000499719
-0.000565449
-0.000583083
-0.000598679
-0.0006166
-0.000627043
-0.000626841
-0.000616177
-0.000591747
-0.000547741
-0.000482934
-0.000410632
-0.000359602
-0.000365299
-0.000497064
-0.000563631
-0.000582132
-0.000598304
-0.000616673
-0.000627514
-0.000627659
-0.000617276
-0.000593025
-0.00054899
-0.000483794
-0.000410828
-0.000359295
-0.000362495
-0.000494481
-0.000561957
-0.000581249
-0.00059792
-0.00061668
-0.000627827
-0.000628169
-0.00061788
-0.000593623
-0.000549437
-0.000483836
-0.00041027
-0.000358271
-0.000359762
-0.000492145
-0.000560582
-0.000580542
-0.000597576
-0.000616646
-0.000627992
-0.000628363
-0.000617969
-0.000593503
-0.000549024
-0.000482984
-0.000408844
-0.000356381
-0.000357211
-0.000490165
-0.000559611
-0.000580113
-0.000597362
-0.000616636
-0.000628041
-0.00062825
-0.000617529
-0.00059264
-0.000547699
-0.000481183
-0.000406512
-0.000353587
-0.000354846
-0.00048858
-0.000559106
-0.000579982
-0.000597318
-0.000616667
-0.000627978
-0.000627851
-0.000616591
-0.000591069
-0.000545491
-0.000478464
-0.000403326
-0.000349981
-0.000352624
-0.000487434
-0.000559028
-0.000580123
-0.000597427
-0.000616716
-0.000627795
-0.000627185
-0.00061521
-0.000588865
-0.000542506
-0.000474933
-0.000399408
-0.000345725
-0.000350585
-0.000486641
-0.000559229
-0.00058049
-0.000597656
-0.00061676
-0.000627493
-0.000626284
-0.000613455
-0.000586142
-0.000538903
-0.000470761
-0.000394927
-0.000341004
-0.000348743
-0.000486016
-0.000559601
-0.00058102
-0.000597967
-0.000616785
-0.000627082
-0.000625193
-0.000611412
-0.000583037
-0.000534866
-0.000466158
-0.000390093
-0.000336017
-0.000347025
-0.000485478
-0.000560061
-0.000581653
-0.000598334
-0.000616789
-0.00062658
-0.000623956
-0.000609174
-0.000579699
-0.000530592
-0.000461355
-0.000385145
-0.000330989
-0.000345421
-0.000484974
-0.000560524
-0.000582314
-0.000598733
-0.000616786
-0.000626019
-0.000622638
-0.000606854
-0.000576302
-0.000526306
-0.000456604
-0.00038033
-0.000326179
-0.000343957
-0.000484472
-0.00056092
-0.000582935
-0.000599124
-0.000616781
-0.000625472
-0.00062135
-0.000604613
-0.000573059
-0.000522259
-0.000452169
-0.000375891
-0.00032181
-0.000342662
-0.000483978
-0.000561201
-0.000583461
-0.00059948
-0.000616793
-0.000625008
-0.000620207
-0.000602618
-0.000570185
-0.000518694
-0.000448287
-0.000372038
-0.000318066
-0.000341558
-0.00048353
-0.00056134
-0.000583866
-0.000599804
-0.00061686
-0.00062469
-0.000619323
-0.000601027
-0.000567871
-0.000515817
-0.000445144
-0.000368929
-0.000315079
-0.000340667
-0.000483161
-0.000561347
-0.000584131
-0.000600111
-0.000617021
-0.000624582
-0.000618799
-0.000599974
-0.000566267
-0.000513771
-0.000442862
-0.000366658
-0.000312913
-0.000340021
-0.00048284
-0.000561247
-0.000584261
-0.000600408
-0.000617309
-0.000624732
-0.000618701
-0.000599544
-0.000565467
-0.000512637
-0.000441501
-0.000365261
-0.0003116
-0.000339599
-0.000482539
-0.000561048
-0.000584273
-0.000600698
-0.000617742
-0.000625167
-0.000619067
-0.00059978
-0.00056551
-0.000512437
-0.000441075
-0.000364745
-0.000311155
-0.000339353
-0.00048226
-0.000560726
-0.00058416
-0.000600964
-0.000618295
-0.00062588
-0.000619893
-0.000600671
-0.000566373
-0.000513147
-0.000441558
-0.000365085
-0.000311526
-0.000339267
-0.000481959
-0.000560242
-0.000583901
-0.000601174
-0.000618921
-0.000626817
-0.000621122
-0.000602152
-0.000567983
-0.000514691
-0.000442872
-0.000366205
-0.000312603
-0.000339266
-0.000481555
-0.000559564
-0.000583476
-0.000601296
-0.00061957
-0.000627914
-0.000622667
-0.000604109
-0.000570214
-0.000516944
-0.000444902
-0.000367997
-0.000314284
-0.000339283
-0.000480992
-0.000558679
-0.000582877
-0.000601303
-0.000620185
-0.000629084
-0.000624399
-0.000606388
-0.0005729
-0.000519748
-0.00044751
-0.000370329
-0.000316472
-0.000339262
-0.000480263
-0.000557601
-0.000582116
-0.000601177
-0.000620715
-0.000630247
-0.000626199
-0.000608832
-0.000575856
-0.000522912
-0.000450516
-0.000373037
-0.000319025
-0.000339147
-0.000479365
-0.000556364
-0.000581218
-0.000600918
-0.00062113
-0.000631337
-0.000627958
-0.000611282
-0.000578881
-0.000526211
-0.0004537
-0.000375923
-0.000321755
-0.000338892
-0.00047833
-0.000555036
-0.000580239
-0.000600555
-0.000621419
-0.000632284
-0.00062957
-0.000613585
-0.000581773
-0.000529415
-0.000456833
-0.000378771
-0.000324446
-0.00033849
-0.000477207
-0.000553685
-0.000579234
-0.000600119
-0.000621587
-0.000633068
-0.000630977
-0.000615633
-0.000584379
-0.000532337
-0.000459715
-0.00038139
-0.000326899
-0.000337974
-0.000476059
-0.000552394
-0.000578276
-0.000599652
-0.000621651
-0.000633682
-0.000632144
-0.000617352
-0.000586581
-0.000534822
-0.000462178
-0.000383616
-0.000328976
-0.000337384
-0.000474969
-0.00055125
-0.000577434
-0.000599206
-0.000621636
-0.000634122
-0.000633033
-0.000618679
-0.000588283
-0.000536746
-0.000464084
-0.000385318
-0.000330552
-0.000336757
-0.000474006
-0.000550329
-0.000576774
-0.000598829
-0.000621579
-0.000634402
-0.000633628
-0.000619564
-0.00058941
-0.00053801
-0.00046532
-0.000386387
-0.000331507
-0.000336171
-0.000473228
-0.000549688
-0.00057634
-0.000598557
-0.000621505
-0.00063454
-0.000633934
-0.00061999
-0.000589916
-0.000538545
-0.000465802
-0.000386737
-0.000331761
-0.000335656
-0.000472713
-0.000549383
-0.000576146
-0.000598409
-0.000621439
-0.000634548
-0.000633953
-0.000619955
-0.000589788
-0.00053832
-0.000465491
-0.000386329
-0.000331286
-0.000335238
-0.000472544
-0.00054942
-0.000576172
-0.000598384
-0.000621387
-0.000634428
-0.000633689
-0.000619467
-0.00058904
-0.00053735
-0.000464402
-0.000385178
-0.000330088
-0.000334909
-0.000472667
-0.00054974
-0.000576393
-0.000598465
-0.00062133
-0.000634174
-0.000633148
-0.000618548
-0.000587717
-0.000535697
-0.000462599
-0.00038335
-0.000328233
-0.000334591
-0.000472941
-0.000550277
-0.000576793
-0.000598633
-0.000621254
-0.000633785
-0.000632351
-0.000617243
-0.000585884
-0.000533456
-0.000460186
-0.000380948
-0.000325823
-0.000334221
-0.000473276
-0.000550964
-0.000577335
-0.000598862
-0.000621142
-0.000633268
-0.000631326
-0.0006156
-0.000583621
-0.00053073
-0.000457287
-0.000378093
-0.000322978
-0.000333758
-0.000473599
-0.000551726
-0.000577975
-0.000599129
-0.00062099
-0.000632633
-0.000630105
-0.000613683
-0.00058102
-0.000527642
-0.000454041
-0.00037492
-0.000319834
-0.000333213
-0.000473869
-0.0005525
-0.00057865
-0.000599404
-0.000620793
-0.000631898
-0.000628734
-0.000611572
-0.000578204
-0.000524343
-0.000450614
-0.000371601
-0.000316563
-0.000332616
-0.000474061
-0.000553226
-0.000579307
-0.000599657
-0.00062055
-0.000631092
-0.000627282
-0.000609386
-0.000575336
-0.00052103
-0.000447212
-0.000368345
-0.000313387
-0.000332007
-0.000474168
-0.000553861
-0.0005799
-0.000599859
-0.000620268
-0.000630268
-0.000625841
-0.000607258
-0.000572593
-0.000517909
-0.000444049
-0.000365358
-0.00031052
-0.00033143
-0.000474206
-0.000554388
-0.000580393
-0.000599992
-0.000619971
-0.000629503
-0.000624522
-0.000605336
-0.000570148
-0.000515165
-0.000441304
-0.000362802
-0.000308121
-0.000330952
-0.0004742
-0.000554752
-0.000580737
-0.000600062
-0.000619691
-0.000628834
-0.000623405
-0.000603757
-0.000568161
-0.000512935
-0.000439072
-0.000360727
-0.000306217
-0.000331042
-0.000474602
-0.000555151
-0.000580942
-0.000600141
-0.00061955
-0.000628311
-0.000622509
-0.000602597
-0.000566799
-0.000511436
-0.000437569
-0.000359298
-0.000304909
-0.00033195
-0.000475421
-0.000555635
-0.000580928
-0.000600184
-0.000619663
-0.00062812
-0.000621941
-0.000601816
-0.000565903
-0.000510461
-0.000436544
-0.000358077
-0.000304014
-0.000512296
-0.000543848
-0.000573363
-0.000592259
-0.000603889
-0.000610869
-0.000611467
-0.000604236
-0.000589369
-0.000568825
-0.000545991
-0.000519197
-0.000477285
-0.000438274
-0.000511919
-0.000547618
-0.000575936
-0.000596375
-0.000610576
-0.000620031
-0.000622788
-0.000617108
-0.000603322
-0.00058312
-0.000558442
-0.000522803
-0.000472061
-0.000423826
-0.000513222
-0.000548058
-0.000574185
-0.000595025
-0.000611219
-0.000622703
-0.000627392
-0.00062365
-0.000610865
-0.000588424
-0.000555463
-0.000510922
-0.000459068
-0.000413258
-0.000512008
-0.000546727
-0.000572432
-0.000593335
-0.000610108
-0.000622392
-0.000627972
-0.000625332
-0.000613712
-0.000591837
-0.000557828
-0.000511418
-0.000458379
-0.000414633
-0.000509169
-0.000544264
-0.000570532
-0.000591989
-0.000609145
-0.000621825
-0.000628036
-0.000626554
-0.000616836
-0.000597216
-0.0005645
-0.000517008
-0.000461713
-0.000418216
-0.000506194
-0.000541591
-0.000568436
-0.000590566
-0.00060821
-0.000621348
-0.000628271
-0.000627967
-0.000620002
-0.000602344
-0.000570698
-0.000522327
-0.000465137
-0.000421139
-0.000503767
-0.000539244
-0.000566552
-0.000589316
-0.000607502
-0.000621166
-0.000628794
-0.000629484
-0.000622815
-0.000606471
-0.00057551
-0.000526578
-0.000468031
-0.000423151
-0.000501598
-0.000537098
-0.00056494
-0.000588363
-0.0006071
-0.000621254
-0.000629464
-0.000630886
-0.000625053
-0.000609488
-0.000578934
-0.000529684
-0.000470165
-0.000424516
-0.000499449
-0.000534996
-0.000563427
-0.000587576
-0.000606903
-0.000621501
-0.00063015
-0.000632056
-0.000626713
-0.00061158
-0.000581255
-0.000531805
-0.000471586
-0.0004253
-0.000497313
-0.000532936
-0.000561921
-0.000586812
-0.000606753
-0.000621765
-0.00063074
-0.000632938
-0.00062786
-0.000612938
-0.000582705
-0.000533063
-0.000472297
-0.00042548
-0.00049534
-0.000531033
-0.000560488
-0.00058607
-0.000606589
-0.000621968
-0.000631173
-0.00063352
-0.000628545
-0.000613664
-0.000583389
-0.00053351
-0.000472258
-0.000424988
-0.000493646
-0.000529427
-0.000559265
-0.000585448
-0.000606457
-0.000622131
-0.00063146
-0.000633814
-0.000628768
-0.000613759
-0.000583303
-0.000533127
-0.000471407
-0.000423724
-0.000492261
-0.000528232
-0.000558387
-0.000585052
-0.000606432
-0.000622307
-0.000631641
-0.000633843
-0.000628523
-0.000613199
-0.000582409
-0.000531871
-0.000469711
-0.00042165
-0.0004912
-0.000527477
-0.00055792
-0.000584933
-0.000606552
-0.000622509
-0.000631721
-0.00063361
-0.00062784
-0.000612003
-0.00058071
-0.000529744
-0.000467188
-0.000418814
-0.00049042
-0.000527097
-0.000557862
-0.000585088
-0.000606809
-0.000622718
-0.000631676
-0.000633117
-0.000626751
-0.000610229
-0.000578275
-0.000526818
-0.000463922
-0.00041531
-0.000489901
-0.000527008
-0.000558138
-0.000585476
-0.000607171
-0.000622907
-0.000631501
-0.000632394
-0.000625312
-0.000607966
-0.000575226
-0.000523231
-0.000460047
-0.000411274
-0.000489602
-0.000527134
-0.000558643
-0.00058603
-0.000607597
-0.000623059
-0.000631211
-0.000631481
-0.00062359
-0.000605321
-0.000571718
-0.000519166
-0.000455762
-0.000406848
-0.000489414
-0.000527395
-0.000559283
-0.000586686
-0.000608058
-0.000623178
-0.000630831
-0.00063042
-0.000621659
-0.000602418
-0.000567926
-0.000514832
-0.000451279
-0.000402261
-0.0004893
-0.000527712
-0.000559973
-0.000587381
-0.000608529
-0.000623273
-0.000630388
-0.000629265
-0.000619616
-0.000599407
-0.00056405
-0.000510459
-0.000446822
-0.000397789
-0.000489233
-0.000528022
-0.000560641
-0.00058806
-0.000608985
-0.000623347
-0.00062993
-0.000628106
-0.000617598
-0.000596472
-0.000560322
-0.000506298
-0.00044263
-0.000393648
-0.000489147
-0.000528283
-0.000561232
-0.000588682
-0.000609418
-0.00062343
-0.000629526
-0.000627055
-0.000615764
-0.000593821
-0.00055698
-0.000502594
-0.000438927
-0.000390031
-0.000488992
-0.000528456
-0.000561709
-0.000589226
-0.000609842
-0.000623572
-0.000629254
-0.00062623
-0.000614279
-0.000591655
-0.000554247
-0.00049956
-0.000435898
-0.000387107
-0.000488793
-0.000528503
-0.000562045
-0.000589683
-0.00061027
-0.000623822
-0.000629198
-0.000625751
-0.000613295
-0.000590148
-0.000552296
-0.00049735
-0.000433667
-0.000384976
-0.000488561
-0.000528398
-0.000562216
-0.000590041
-0.00061071
-0.000624214
-0.000629423
-0.000625712
-0.000612927
-0.000589424
-0.000551242
-0.000496053
-0.00043229
-0.000383686
-0.000488262
-0.000528133
-0.000562191
-0.000590293
-0.000611163
-0.000624761
-0.000629958
-0.00062616
-0.000613233
-0.000589542
-0.000551132
-0.0004957
-0.000431792
-0.000383248
-0.000487828
-0.000527713
-0.000561945
-0.000590417
-0.000611613
-0.000625447
-0.000630794
-0.000627089
-0.000614203
-0.000590486
-0.000551943
-0.000496267
-0.000432151
-0.00038361
-0.000487248
-0.000527138
-0.000561484
-0.00059038
-0.000612024
-0.000626233
-0.000631882
-0.000628436
-0.000615761
-0.000592171
-0.00055359
-0.00049767
-0.000433293
-0.000384685
-0.000486565
-0.000526387
-0.000560815
-0.000590163
-0.000612351
-0.000627055
-0.000633131
-0.00063009
-0.000617785
-0.000594463
-0.000555935
-0.000499786
-0.000435102
-0.000386371
-0.000485805
-0.000525449
-0.000559942
-0.000589761
-0.000612553
-0.000627838
-0.00063444
-0.000631919
-0.000620116
-0.000597185
-0.000558803
-0.00050246
-0.000437439
-0.000388553
-0.000484916
-0.000524336
-0.000558896
-0.00058919
-0.000612612
-0.000628527
-0.000635728
-0.000633804
-0.00062259
-0.00060014
-0.000561986
-0.000505498
-0.000440137
-0.000391086
-0.000483902
-0.00052308
-0.00055772
-0.00058848
-0.000612527
-0.000629088
-0.000636924
-0.000635629
-0.000625044
-0.000603128
-0.000565262
-0.000508679
-0.000442996
-0.000393787
-0.00048283
-0.000521749
-0.000556455
-0.000587659
-0.00061231
-0.000629506
-0.000637971
-0.000637298
-0.000627337
-0.000605965
-0.00056842
-0.000511789
-0.000445815
-0.000396432
-0.000481745
-0.00052041
-0.000555174
-0.000586788
-0.000611999
-0.000629789
-0.000638843
-0.000638746
-0.000629363
-0.000608507
-0.000571285
-0.000514642
-0.00044842
-0.000398799
-0.00048069
-0.00051914
-0.000553969
-0.000585944
-0.000611646
-0.000629962
-0.000639537
-0.00063994
-0.000631055
-0.000610645
-0.000573711
-0.000517079
-0.000450642
-0.000400791
-0.000479722
-0.000518026
-0.000552923
-0.000585191
-0.0006113
-0.000630053
-0.000640056
-0.000640863
-0.000632368
-0.000612299
-0.000575588
-0.000518971
-0.000452355
-0.000402311
-0.00047892
-0.000517141
-0.0005521
-0.000584584
-0.000611003
-0.000630092
-0.000640413
-0.000641506
-0.000633268
-0.000613415
-0.00057684
-0.000520223
-0.000453464
-0.000403271
-0.000478373
-0.000516525
-0.000551538
-0.000584158
-0.000610792
-0.000630104
-0.000640622
-0.000641865
-0.000633739
-0.000613959
-0.000577411
-0.000520764
-0.000453894
-0.000403603
-0.000478066
-0.000516193
-0.000551241
-0.000583938
-0.000610685
-0.000630104
-0.000640688
-0.000641946
-0.000633777
-0.000613917
-0.000577279
-0.000520557
-0.000453606
-0.000403273
-0.000477953
-0.000516144
-0.00055122
-0.00058393
-0.000610681
-0.000630089
-0.000640616
-0.00064175
-0.000633389
-0.000613299
-0.000576454
-0.000519616
-0.000452613
-0.000402276
-0.000478036
-0.00051637
-0.000551481
-0.000584122
-0.00061077
-0.000630053
-0.000640401
-0.000641283
-0.000632591
-0.000612137
-0.000574982
-0.000517993
-0.00045097
-0.000400659
-0.000478289
-0.000516831
-0.000551986
-0.000584489
-0.000610937
-0.000629989
-0.000640044
-0.000640561
-0.000631418
-0.000610482
-0.000572932
-0.000515771
-0.000448762
-0.000398508
-0.000478664
-0.000517453
-0.000552665
-0.000584985
-0.000611155
-0.000629883
-0.000639552
-0.000639605
-0.000629909
-0.000608401
-0.000570398
-0.000513058
-0.000446097
-0.000395916
-0.000479111
-0.000518166
-0.000553447
-0.000585556
-0.000611386
-0.000629715
-0.000638925
-0.00063844
-0.000628117
-0.000605978
-0.000567492
-0.000509983
-0.00044311
-0.000392972
-0.000479575
-0.000518912
-0.000554271
-0.000586152
-0.000611601
-0.000629479
-0.000638179
-0.000637107
-0.000626118
-0.000603324
-0.000564353
-0.000506698
-0.000439949
-0.000389859
-0.000480015
-0.00051963
-0.000555077
-0.000586729
-0.000611781
-0.000629185
-0.000637351
-0.000635676
-0.000624017
-0.000600584
-0.000561159
-0.000503394
-0.000436805
-0.000386797
-0.000480386
-0.000520261
-0.000555811
-0.000587249
-0.000611913
-0.000628851
-0.000636498
-0.000634236
-0.000621942
-0.000597924
-0.000558107
-0.00050028
-0.000433877
-0.000383992
-0.000480657
-0.000520775
-0.000556428
-0.000587677
-0.000611994
-0.000628507
-0.000635683
-0.000632889
-0.000620031
-0.000595514
-0.00055539
-0.000497551
-0.000431346
-0.000381617
-0.000480875
-0.00052118
-0.000556908
-0.000588001
-0.000612033
-0.000628189
-0.000634971
-0.000631741
-0.000618436
-0.00059353
-0.000553174
-0.000495342
-0.000429294
-0.000379728
-0.000481117
-0.000521436
-0.000557268
-0.000588257
-0.000612048
-0.000627918
-0.0006344
-0.000630874
-0.000617304
-0.000592189
-0.000551733
-0.000493973
-0.000428059
-0.000378487
-0.000480469
-0.00052057
-0.000556932
-0.000588267
-0.000611963
-0.000627636
-0.00063391
-0.000630191
-0.000616474
-0.000591291
-0.000550909
-0.000493418
-0.000427584
-0.000377785
-0.000557039
-0.000571859
-0.000587136
-0.000602058
-0.000612663
-0.000618808
-0.000620221
-0.00061564
-0.000604312
-0.000586947
-0.000565413
-0.000537939
-0.000498464
-0.000467393
-0.000560766
-0.000578225
-0.000592098
-0.000607906
-0.000620022
-0.000627574
-0.000630161
-0.000626623
-0.000616299
-0.000600047
-0.000579093
-0.000547608
-0.000502973
-0.000462368
-0.000561548
-0.00057779
-0.000591318
-0.00060832
-0.000622642
-0.000632326
-0.000636272
-0.000633625
-0.000623318
-0.000604825
-0.000577771
-0.000540939
-0.000497439
-0.000458765
-0.000559545
-0.000575419
-0.000588839
-0.000606013
-0.000621009
-0.000631536
-0.000635997
-0.000633644
-0.000623732
-0.000605538
-0.000578082
-0.000540936
-0.000497773
-0.000461022
-0.000556831
-0.00057289
-0.000586705
-0.00060412
-0.000619165
-0.000629838
-0.000634758
-0.000633267
-0.000625073
-0.000609288
-0.00058377
-0.00054638
-0.000501024
-0.000464019
-0.000553878
-0.000570348
-0.000584792
-0.000602759
-0.000618062
-0.000629001
-0.000634554
-0.000634211
-0.000627845
-0.000614215
-0.00059001
-0.000551798
-0.000504208
-0.000466433
-0.000551163
-0.000567982
-0.00058306
-0.000601665
-0.000617427
-0.000628811
-0.000635056
-0.000635736
-0.000630782
-0.00061854
-0.000595014
-0.000556125
-0.000506942
-0.000468236
-0.000548652
-0.000565747
-0.000581472
-0.000600751
-0.000617031
-0.000628889
-0.000635745
-0.000637226
-0.000633184
-0.000621731
-0.000598588
-0.000559299
-0.000509028
-0.000469531
-0.000546313
-0.000563596
-0.00057995
-0.000599945
-0.000616765
-0.000629066
-0.0006364
-0.000638436
-0.000634915
-0.000623914
-0.000601007
-0.000561489
-0.000510483
-0.000470327
-0.000544238
-0.000561619
-0.000578512
-0.000599213
-0.00061658
-0.000629282
-0.000636962
-0.000639332
-0.000636107
-0.000625341
-0.00060255
-0.000562858
-0.000511313
-0.000470621
-0.000542598
-0.000559984
-0.000577295
-0.000598632
-0.000616503
-0.000629542
-0.000637448
-0.00063998
-0.000636876
-0.00062618
-0.000603395
-0.00056353
-0.000511537
-0.000470383
-0.000541484
-0.000558854
-0.000576463
-0.000598321
-0.000616612
-0.000629893
-0.00063789
-0.000640421
-0.000637269
-0.000626494
-0.000603607
-0.000563559
-0.000511164