/*--------------------------------*- C++ -*----------------------------------*\
| =========                 |                                                 |
| \\      /  F ield         | OpenFOAM: The Open Source CFD Toolbox           |
|  \\    /   O peration     | Version:  5.0                                   |
|   \\  /    A nd           | Web:      www.OpenFOAM.org                      |
|    \\/     M anipulation  |                                                 |
\*---------------------------------------------------------------------------*/
FoamFile
{
    version     2.0;
    format      ascii;
    class       volScalarField;
    location    "1.6";
    object      shearRate;
}
// * * * * * * * * * * * * * * * * * * * * * * * * * * * * * * * * * * * * * //

dimensions      [0 0 -1 0 0 0 0];

internalField   nonuniform List<scalar> 
50
(
6.45683e-15
3.3312e-15
6.25559e-15
9.18291e-15
2.17438e-14
2.17611e-14
2.16869e-14
5.682e-15
2.27328e-14
2.23463e-14
1.46009e-15
6.51159e-14
2.27799e-14
4.39695e-14
4.48922e-14
5.57998e-15
2.28477e-14
6.51583e-14
2.18859e-14
6.56775e-14
2.3056e-14
2.20331e-14
9.58291e-15
2.19936e-14
2.17999e-14
6.97992e-15
3.92534e-15
1.04498e-14
7.0343e-15
2.19123e-14
2.28358e-14
4.35771e-14
8.71355e-14
4.40607e-14
5.32616e-15
6.51259e-14
5.46264e-15
5.64462e-15
2.33381e-14
8.37087e-15
2.20098e-14
6.5125e-14
9.77515e-15
3.0659e-15
1.04768e-14
2.87147e-15
2.27609e-14
8.67595e-14
4.34452e-14
1.08533e-13
)
;

boundaryField
{
    top
    {
        type            zeroGradient;
    }
    bottom
    {
        type            symmetryPlane;
    }
    inlet
    {
        type            zeroGradient;
    }
    outlet
    {
        type            zeroGradient;
    }
    frontAndBack
    {
        type            empty;
    }
    procBoundary0to1
    {
        type            processor;
        value           nonuniform List<scalar> 10(2.8876e-14 2.40428e-14 2.42823e-14 6.57685e-14 7.25478e-15 2.32542e-14 4.36077e-14 6.51689e-14 4.40824e-14 1.51983e-13);
    }
}


// ************************************************************************* //
