/*--------------------------------*- C++ -*----------------------------------*\
| =========                 |                                                 |
| \\      /  F ield         | OpenFOAM: The Open Source CFD Toolbox           |
|  \\    /   O peration     | Version:  5.0                                   |
|   \\  /    A nd           | Web:      www.OpenFOAM.org                      |
|    \\/     M anipulation  |                                                 |
\*---------------------------------------------------------------------------*/
FoamFile
{
    version     2.0;
    format      ascii;
    class       volScalarField;
    location    "2.4";
    object      nu;
}
// * * * * * * * * * * * * * * * * * * * * * * * * * * * * * * * * * * * * * //

dimensions      [0 2 -1 0 0 0 0];

internalField   nonuniform List<scalar> 
25
(
8.82237
7.50558
7.31702
7.24606
7.23618
9.83539
9.72926
9.71574
9.70801
9.70263
9.83774
9.83674
9.83527
9.83539
9.82883
9.83945
9.85686
9.85882
9.86037
9.85491
9.95337
9.95509
9.95627
9.95552
9.95695
)
;

boundaryField
{
    top
    {
        type            calculated;
        value           nonuniform List<scalar> 5(9.98052 9.9807 9.98122 9.98072 9.98207);
    }
    bottom
    {
        type            symmetryPlane;
    }
    inlet
    {
        type            calculated;
        value           nonuniform 0();
    }
    outlet
    {
        type            calculated;
        value           nonuniform List<scalar> 5(7.21659 9.70199 9.82871 9.85554 9.95743);
    }
    frontAndBack
    {
        type            empty;
    }
    procBoundary1to0
    {
        type            processor;
        value           nonuniform List<scalar> 5(8.79888 9.83317 9.83548 9.83706 9.95293);
    }
}


// ************************************************************************* //
