/*--------------------------------*- C++ -*----------------------------------*\
| =========                 |                                                 |
| \\      /  F ield         | OpenFOAM: The Open Source CFD Toolbox           |
|  \\    /   O peration     | Version:  5.0                                   |
|   \\  /    A nd           | Web:      www.OpenFOAM.org                      |
|    \\/     M anipulation  |                                                 |
\*---------------------------------------------------------------------------*/
FoamFile
{
    version     2.0;
    format      ascii;
    class       volVectorField;
    location    "2.4";
    object      U;
}
// * * * * * * * * * * * * * * * * * * * * * * * * * * * * * * * * * * * * * //

dimensions      [0 1 -1 0 0 0 0];

internalField   nonuniform List<vector> 
25
(
(1 -4.6587e-09 6.46481e-23)
(1 3.95693e-11 3.2324e-23)
(1 1.54153e-09 -3.2324e-23)
(1 6.51192e-09 4.59067e-30)
(1 -3.13912e-09 3.26281e-23)
(0.92 -9.24822e-09 -2.79793e-23)
(0.92 -1.27325e-09 2.62964e-29)
(0.92 8.90884e-09 5.59589e-23)
(0.92 1.98039e-08 -8.56367e-29)
(0.92 -6.59814e-10 -5.64503e-23)
(0.76 -1.64385e-09 2.79794e-23)
(0.76 6.59662e-10 2.79794e-23)
(0.76 2.95416e-08 2.79795e-23)
(0.76 4.39793e-08 -6.38213e-29)
(0.76 2.12434e-08 -2.8262e-23)
(0.52 8.34074e-09 5.59589e-23)
(0.52 6.77033e-09 2.79795e-23)
(0.52 4.50556e-08 3.57625e-28)
(0.52 6.22298e-08 -2.79794e-23)
(0.52 3.73425e-08 3.04591e-28)
(0.2 5.07128e-09 3.98786e-23)
(0.2 4.02172e-09 1.99393e-23)
(0.2 2.10956e-08 -1.16627e-28)
(0.2 2.85319e-08 0)
(0.2 1.7772e-08 0)
)
;

boundaryField
{
    top
    {
        type            fixedValue;
        value           uniform (0 0 0);
    }
    bottom
    {
        type            symmetryPlane;
    }
    inlet
    {
        type            pressureInletVelocity;
        value           nonuniform 0();
    }
    outlet
    {
        type            inletOutlet;
        inletValue      uniform (1 0 0);
        value           nonuniform List<vector> 5((1 -3.13912e-09 3.26281e-23) (0.92 -6.59814e-10 -5.64503e-23) (0.76 2.12434e-08 -2.8262e-23) (0.52 3.73425e-08 3.04591e-28) (0.2 1.7772e-08 0));
    }
    frontAndBack
    {
        type            empty;
    }
    procBoundary1to0
    {
        type            processor;
        value           nonuniform List<vector> 5((1 -4.45693e-09 1.03917e-29) (0.92 -1.4466e-08 -2.79794e-23) (0.76 -2.39142e-08 -5.59588e-23) (0.52 -2.44145e-08 5.59587e-23) (0.2 -9.89495e-09 3.98787e-23));
    }
}


// ************************************************************************* //
