/*--------------------------------*- C++ -*----------------------------------*\
| =========                 |                                                 |
| \\      /  F ield         | OpenFOAM: The Open Source CFD Toolbox           |
|  \\    /   O peration     | Version:  5.0                                   |
|   \\  /    A nd           | Web:      www.OpenFOAM.org                      |
|    \\/     M anipulation  |                                                 |
\*---------------------------------------------------------------------------*/
FoamFile
{
    version     2.0;
    format      ascii;
    class       surfaceScalarField;
    location    "1.4";
    object      phi;
}
// * * * * * * * * * * * * * * * * * * * * * * * * * * * * * * * * * * * * * //

dimensions      [0 3 -1 0 0 0 0];

internalField   nonuniform List<scalar> 
85
(
0.000100749
3.95131e-20
0.000100749
1.29167e-19
0.000100749
-1.39454e-19
0.000100749
6.52258e-20
-1.25777e-19
0.000100749
1.09017e-19
0.000100749
-1.15234e-19
0.000100749
-1.79726e-19
0.000100749
1.4419e-19
-1.52589e-19
0.000100749
1.55954e-19
0.000100749
-6.25118e-20
0.000100749
-1.36948e-19
0.000100749
2.97802e-19
-1.2638e-19
0.000100749
2.4547e-19
0.000100749
-9.67993e-20
0.000100749
-1.96639e-19
0.000100749
4.58084e-19
-9.35007e-21
0.000100749
2.91586e-19
0.000100749
-7.45087e-20
0.000100749
-1.41943e-19
0.000100749
4.093e-19
-1.12392e-19
0.000100749
2.70636e-19
0.000100749
-5.76062e-20
0.000100749
-1.44767e-19
0.000100749
4.13514e-19
-3.27286e-20
0.000100749
3.91392e-19
0.000100749
-4.55228e-20
0.000100749
-3.97036e-19
0.000100749
3.9671e-19
8.01172e-20
0.000100749
4.48661e-19
0.000100749
-3.02594e-20
0.000100749
-3.70945e-19
0.000100749
4.71408e-19
4.74427e-20
0.000100749
3.91994e-19
0.000100749
-2.92365e-20
0.000100749
-3.75591e-19
0.000100749
4.26607e-19
8.06156e-20
0.000100749
0.000100749
0.000100749
0.000100749
)
;

boundaryField
{
    top
    {
        type            calculated;
        value           nonuniform List<scalar> 5(2.96512e-19 -3.82318e-20 -3.59727e-19 4.12886e-19 8.67122e-20);
    }
    bottom
    {
        type            symmetryPlane;
        value           uniform 0;
    }
    inlet
    {
        type            calculated;
        value           nonuniform List<scalar> 10(-0.000100749 -0.000100749 -0.000100749 -0.000100749 -0.000100749 -0.000100749 -0.000100749 -0.000100749 -0.000100749 -0.000100749);
    }
    outlet
    {
        type            calculated;
        value           nonuniform 0();
    }
    frontAndBack
    {
        type            empty;
        value           nonuniform 0();
    }
    procBoundary0to1
    {
        type            processor;
        value           nonuniform List<scalar> 10(0.000100749 0.000100749 0.000100749 0.000100749 0.000100749 0.000100749 0.000100749 0.000100749 0.000100749 0.000100749);
    }
}


// ************************************************************************* //
