/*--------------------------------*- C++ -*----------------------------------*\
| =========                 |                                                 |
| \\      /  F ield         | OpenFOAM: The Open Source CFD Toolbox           |
|  \\    /   O peration     | Version:  5.0                                   |
|   \\  /    A nd           | Web:      www.OpenFOAM.org                      |
|    \\/     M anipulation  |                                                 |
\*---------------------------------------------------------------------------*/
FoamFile
{
    version     2.0;
    format      ascii;
    class       volScalarField;
    location    "480";
    object      p;
}
// * * * * * * * * * * * * * * * * * * * * * * * * * * * * * * * * * * * * * //

dimensions      [0 2 -2 0 0 0 0];

internalField   nonuniform List<scalar> 
1568
(
1.98662e-19
3.54779e-18
6.32987e-18
8.0583e-18
9.54057e-18
1.08404e-17
1.19422e-17
1.29333e-17
1.38454e-17
1.46946e-17
1.55017e-17
1.62855e-17
1.70573e-17
1.78235e-17
1.85929e-17
1.93717e-17
2.01626e-17
2.09685e-17
2.1791e-17
2.26307e-17
2.3487e-17
2.43615e-17
2.52173e-17
2.58551e-17
2.63447e-17
2.69848e-17
2.80238e-17
2.95244e-17
3.1228e-17
3.27333e-17
3.37778e-17
3.44232e-17
3.49125e-17
3.55455e-17
3.63994e-17
3.72741e-17
3.81292e-17
3.89692e-17
3.9791e-17
4.05964e-17
4.13867e-17
4.21652e-17
4.29339e-17
4.37006e-17
4.44708e-17
4.52545e-17
4.60634e-17
4.69135e-17
4.78218e-17
4.88149e-17
4.99287e-17
5.12109e-17
5.26889e-17
5.44463e-17
5.72128e-17
6.03924e-17
1.9506e-18
4.01459e-18
7.42748e-18
8.78753e-18
1.00545e-17
1.15955e-17
1.26694e-17
1.36362e-17
1.45926e-17
1.54588e-17
1.62542e-17
1.7028e-17
1.77972e-17
1.85451e-17
1.92921e-17
2.00441e-17
2.08018e-17
2.15695e-17
2.23508e-17
2.31472e-17
2.39595e-17
2.47898e-17
2.566e-17
2.66414e-17
2.76165e-17
2.85062e-17
2.94211e-17
3.01415e-17
3.06254e-17
3.1351e-17
3.22637e-17
3.31473e-17
3.41112e-17
3.50988e-17
3.59702e-17
3.68058e-17
3.761e-17
3.84124e-17
3.91899e-17
3.99568e-17
4.07164e-17
4.14737e-17
4.22163e-17
4.29664e-17
4.37241e-17
4.45045e-17
4.53166e-17
4.61745e-17
4.70883e-17
4.8108e-17
4.92515e-17
5.05523e-17
5.19993e-17
5.35649e-17
5.67326e-17
5.88287e-17
3.9287e-18
5.92921e-18
8.04642e-18
1.00111e-17
1.1493e-17
1.26465e-17
1.37453e-17
1.48467e-17
1.57378e-17
1.6531e-17
1.73882e-17
1.81633e-17
1.88642e-17
1.95883e-17
2.03073e-17
2.09989e-17
2.17059e-17
2.2418e-17
2.31375e-17
2.38568e-17
2.45919e-17
2.53313e-17
2.60812e-17
2.68354e-17
2.75217e-17
2.81868e-17
2.90025e-17
2.99229e-17
3.08435e-17
3.17532e-17
3.25689e-17
3.32469e-17
3.39489e-17
3.47e-17
3.54392e-17
3.61715e-17
3.69191e-17
3.76282e-17
3.83494e-17
3.90643e-17
3.97593e-17
4.04439e-17
4.11666e-17
4.1879e-17
4.26165e-17
4.33781e-17
4.41749e-17
4.50239e-17
4.5958e-17
4.69708e-17
4.80643e-17
4.93196e-17
5.08914e-17
5.22656e-17
5.50423e-17
5.68819e-17
5.81425e-18
7.43619e-18
1.00878e-17
1.11739e-17
1.25419e-17
1.3766e-17
1.48224e-17
1.58196e-17
1.67121e-17
1.75372e-17
1.8296e-17
1.90101e-17
1.97243e-17
2.04204e-17
2.10756e-17
2.1746e-17
2.24116e-17
2.30688e-17
2.3728e-17
2.44084e-17
2.50844e-17
2.5766e-17
2.64461e-17
2.71334e-17
2.77958e-17
2.84823e-17
2.92112e-17
2.99898e-17
3.07758e-17
3.15598e-17
3.22938e-17
3.29641e-17
3.36168e-17
3.42985e-17
3.49921e-17
3.56711e-17
3.63487e-17
3.70255e-17
3.76848e-17
3.83464e-17
3.9017e-17
3.9693e-17
4.03572e-17
4.10371e-17
4.17409e-17
4.24702e-17
4.32329e-17
4.40696e-17
4.49522e-17
4.58865e-17
4.70301e-17
4.82947e-17
4.9512e-17
5.0782e-17
5.3412e-17
5.49627e-17
7.83903e-18
9.12077e-18
1.14689e-17
1.25421e-17
1.38111e-17
1.49757e-17
1.59852e-17
1.68884e-17
1.77109e-17
1.85101e-17
1.92366e-17
1.99273e-17
2.05938e-17
2.12257e-17
2.18497e-17
2.24729e-17
2.30828e-17
2.36972e-17
2.43125e-17
2.4928e-17
2.55468e-17
2.61736e-17
2.68056e-17
2.74458e-17
2.80819e-17
2.87313e-17
2.93897e-17
3.00517e-17
3.07103e-17
3.13737e-17
3.20339e-17
3.26885e-17
3.33291e-17
3.39672e-17
3.46011e-17
3.52266e-17
3.58389e-17
3.64585e-17
3.70719e-17
3.76799e-17
3.82869e-17
3.89009e-17
3.95229e-17
4.01676e-17
4.08257e-17
4.15187e-17
4.22547e-17
4.30197e-17
4.38537e-17
4.48156e-17
4.57919e-17
4.68256e-17
4.82019e-17
4.94731e-17
5.14928e-17
5.29129e-17
1.00036e-17
1.1254e-17
1.30976e-17
1.42405e-17
1.53122e-17
1.63204e-17
1.72809e-17
1.81256e-17
1.88815e-17
1.96146e-17
2.02965e-17
2.09347e-17
2.15431e-17
2.21367e-17
2.27195e-17
2.32795e-17
2.38349e-17
2.43925e-17
2.49499e-17
2.5501e-17
2.60599e-17
2.66238e-17
2.71877e-17
2.77534e-17
2.83248e-17
2.88964e-17
2.94848e-17
3.00849e-17
3.06852e-17
3.12817e-17
3.18667e-17
3.244e-17
3.3013e-17
3.35793e-17
3.41374e-17
3.46996e-17
3.526e-17
3.58132e-17
3.63692e-17
3.69271e-17
3.74845e-17
3.80484e-17
3.8628e-17
3.92157e-17
3.98284e-17
4.04678e-17
4.11339e-17
4.18714e-17
4.2664e-17
4.34516e-17
4.44064e-17
4.55353e-17
4.65432e-17
4.74917e-17
4.95773e-17
5.0769e-17
1.2228e-17
1.32996e-17
1.49363e-17
1.58852e-17
1.68661e-17
1.78075e-17
1.86255e-17
1.93803e-17
2.01061e-17
2.0765e-17
2.13722e-17
2.19514e-17
2.25091e-17
2.30459e-17
2.35626e-17
2.40722e-17
2.45785e-17
2.50749e-17
2.55688e-17
2.60678e-17
2.65663e-17
2.70619e-17
2.75618e-17
2.80655e-17
2.85719e-17
2.90817e-17
2.95994e-17
3.01212e-17
3.06459e-17
3.11715e-17
3.1688e-17
3.2194e-17
3.26985e-17
3.32019e-17
3.37016e-17
3.41995e-17
3.4699e-17
3.51926e-17
3.5686e-17
3.61836e-17
3.66872e-17
3.71966e-17
3.77156e-17
3.82482e-17
3.88036e-17
3.9388e-17
4.00028e-17
4.06532e-17
4.13557e-17
4.21465e-17
4.2982e-17
4.38102e-17
4.4879e-17
4.59137e-17
4.74613e-17
4.85227e-17
1.45244e-17
1.54098e-17
1.68464e-17
1.76516e-17
1.8516e-17
1.93285e-17
2.00421e-17
2.07194e-17
2.13593e-17
2.19289e-17
2.24758e-17
2.30006e-17
2.34947e-17
2.39657e-17
2.44246e-17
2.4876e-17
2.53184e-17
2.5755e-17
2.619e-17
2.66247e-17
2.70579e-17
2.74934e-17
2.79315e-17
2.83715e-17
2.88117e-17
2.92576e-17
2.97061e-17
3.01572e-17
3.06095e-17
3.10594e-17
3.15102e-17
3.19582e-17
3.23973e-17
3.28361e-17
3.32764e-17
3.37104e-17
3.41412e-17
3.45759e-17
3.50103e-17
3.54464e-17
3.58866e-17
3.63334e-17
3.67916e-17
3.72667e-17
3.77588e-17
3.82743e-17
3.88167e-17
3.9406e-17
4.00369e-17
4.06838e-17
4.14244e-17
4.22811e-17
4.30965e-17
4.38073e-17
4.53392e-17
4.62238e-17
1.68807e-17
1.76303e-17
1.88469e-17
1.95223e-17
2.02388e-17
2.09153e-17
2.1554e-17
2.21387e-17
2.26682e-17
2.31707e-17
2.36482e-17
2.40898e-17
2.45142e-17
2.49253e-17
2.53222e-17
2.57075e-17
2.60844e-17
2.646e-17
2.68326e-17
2.72e-17
2.75688e-17
2.7942e-17
2.83116e-17
2.86831e-17
2.9058e-17
2.94345e-17
2.98127e-17
3.01941e-17
3.05758e-17
3.0955e-17
3.13334e-17
3.17094e-17
3.20839e-17
3.24553e-17
3.28247e-17
3.31941e-17
3.35628e-17
3.39318e-17
3.4303e-17
3.46767e-17
3.50543e-17
3.54402e-17
3.58369e-17
3.62444e-17
3.66656e-17
3.71135e-17
3.75872e-17
3.80839e-17
3.8617e-17
3.92081e-17
3.98428e-17
4.04695e-17
4.12403e-17
4.1977e-17
4.31019e-17
4.38581e-17
1.92833e-17
1.98928e-17
2.08625e-17
2.14157e-17
2.20163e-17
2.2578e-17
2.3105e-17
2.3578e-17
2.40142e-17
2.44404e-17
2.48393e-17
2.52053e-17
2.55552e-17
2.58964e-17
2.62233e-17
2.6544e-17
2.68573e-17
2.71657e-17
2.74708e-17
2.77781e-17
2.8081e-17
2.83831e-17
2.86878e-17
2.89946e-17
2.93009e-17
2.96086e-17
2.99181e-17
3.02287e-17
3.0539e-17
3.08512e-17
3.11601e-17
3.14669e-17
3.17733e-17
3.20789e-17
3.23821e-17
3.26847e-17
3.29892e-17
3.32929e-17
3.35973e-17
3.39049e-17
3.42175e-17
3.45364e-17
3.48629e-17
3.52011e-17
3.55516e-17
3.59214e-17
3.63098e-17
3.67322e-17
3.71847e-17
3.76414e-17
3.81646e-17
3.87441e-17
3.93372e-17
3.98313e-17
4.08569e-17
4.1457e-17
2.1719e-17
2.21927e-17
2.29369e-17
2.33782e-17
2.38443e-17
2.42778e-17
2.46818e-17
2.5053e-17
2.5411e-17
2.57405e-17
2.6042e-17
2.63344e-17
2.66177e-17
2.68838e-17
2.71392e-17
2.73908e-17
2.76374e-17
2.78786e-17
2.81171e-17
2.83543e-17
2.85928e-17
2.88284e-17
2.90663e-17
2.93028e-17
2.95405e-17
2.97798e-17
3.00226e-17
3.02646e-17
3.05065e-17
3.07475e-17
3.09865e-17
3.12261e-17
3.14648e-17
3.17018e-17
3.19388e-17
3.21749e-17
3.24107e-17
3.26473e-17
3.28855e-17
3.31264e-17
3.33712e-17
3.36198e-17
3.38742e-17
3.4142e-17
3.44218e-17
3.47083e-17
3.50171e-17
3.53442e-17
3.56884e-17
3.60638e-17
3.64895e-17
3.68918e-17
3.73541e-17
3.78226e-17
3.85438e-17
3.90143e-17
2.41837e-17
2.45209e-17
2.50569e-17
2.53666e-17
2.56991e-17
2.60078e-17
2.63017e-17
2.65711e-17
2.68248e-17
2.70464e-17
2.72768e-17
2.74769e-17
2.76748e-17
2.78848e-17
2.80711e-17
2.8249e-17
2.84248e-17
2.85984e-17
2.87712e-17
2.8939e-17
2.9109e-17
2.92782e-17
2.94478e-17
2.96177e-17
2.97902e-17
2.996e-17
3.01286e-17
3.02962e-17
3.04669e-17
3.06392e-17
3.08121e-17
3.09826e-17
3.11512e-17
3.13194e-17
3.14876e-17
3.16578e-17
3.1825e-17
3.19936e-17
3.21645e-17
3.23367e-17
3.25117e-17
3.26909e-17
3.28746e-17
3.30826e-17
3.32791e-17
3.34787e-17
3.37066e-17
3.39249e-17
3.41869e-17
3.44491e-17
3.47228e-17
3.50412e-17
3.54063e-17
3.56714e-17
3.62149e-17
3.65496e-17
2.66651e-17
2.68697e-17
2.71935e-17
2.73757e-17
2.75777e-17
2.7763e-17
2.79437e-17
2.81075e-17
2.82511e-17
2.83539e-17
2.8611e-17
2.87482e-17
2.87406e-17
2.89023e-17
2.90092e-17
2.9113e-17
2.92202e-17
2.93235e-17
2.94255e-17
2.95272e-17
2.96267e-17
2.97285e-17
2.9828e-17
2.99271e-17
3.00264e-17
3.01279e-17
3.02309e-17
3.03369e-17
3.04397e-17
3.05382e-17
3.06375e-17
3.07382e-17
3.08388e-17
3.09401e-17
3.10396e-17
3.11376e-17
3.12386e-17
3.13397e-17
3.14402e-17
3.15422e-17
3.16475e-17
3.17509e-17
3.18571e-17
3.20153e-17
3.20075e-17
3.21443e-17
3.23959e-17
3.25034e-17
3.264e-17
3.27897e-17
3.3005e-17
3.31749e-17
3.33354e-17
3.35393e-17
3.38698e-17
3.40652e-17
2.91601e-17
2.92304e-17
2.93389e-17
2.94035e-17
2.94743e-17
2.95333e-17
2.95963e-17
2.96552e-17
2.97222e-17
2.97519e-17
2.98301e-17
2.98493e-17
2.98529e-17
2.99599e-17
2.99603e-17
2.99825e-17
3.00182e-17
3.00501e-17
3.00808e-17
3.01143e-17
3.01468e-17
3.01782e-17
3.02099e-17
3.02434e-17
3.02746e-17
3.03071e-17
3.03373e-17
3.03673e-17
3.03988e-17
3.04317e-17
3.04636e-17
3.04956e-17
3.05264e-17
3.05571e-17
3.05898e-17
3.06193e-17
3.06519e-17
3.06827e-17
3.07129e-17
3.07457e-17
3.07789e-17
3.07975e-17
3.07996e-17
3.0904e-17
3.09052e-17
3.09253e-17
3.09983e-17
3.10233e-17
3.1098e-17
3.11634e-17
3.1201e-17
3.12336e-17
3.13799e-17
3.14138e-17
3.14968e-17
3.15694e-17
3.16577e-17
3.15976e-17
3.14964e-17
3.1434e-17
3.13742e-17
3.13049e-17
3.12524e-17
3.11899e-17
3.11232e-17
3.1096e-17
3.10137e-17
3.09929e-17
3.09885e-17
3.08791e-17
3.08746e-17
3.0851e-17
3.08122e-17
3.07751e-17
3.07398e-17
3.07037e-17
3.06664e-17
3.06282e-17
3.05921e-17
3.05561e-17
3.05188e-17
3.04805e-17
3.04428e-17
3.04025e-17
3.03633e-17
3.03271e-17
3.02899e-17
3.02513e-17
3.02135e-17
3.01747e-17
3.01371e-17
3.0101e-17
3.00623e-17
3.0024e-17
2.99876e-17
2.99495e-17
2.99106e-17
2.98846e-17
2.98792e-17
2.97695e-17
2.97619e-17
2.97381e-17
2.96587e-17
2.96336e-17
2.95542e-17
2.94737e-17
2.94605e-17
2.93941e-17
2.92809e-17
2.91975e-17
2.91479e-17
2.9072e-17
3.41544e-17
3.39635e-17
3.36459e-17
3.34583e-17
3.32718e-17
3.30752e-17
3.29093e-17
3.27414e-17
3.25925e-17
3.24929e-17
3.22347e-17
3.20965e-17
3.2103e-17
3.1938e-17
3.18292e-17
3.17217e-17
3.16106e-17
3.15047e-17
3.13988e-17
3.12914e-17
3.11855e-17
3.10825e-17
3.09747e-17
3.08659e-17
3.07583e-17
3.06513e-17
3.05458e-17
3.04422e-17
3.03344e-17
3.02246e-17
3.01137e-17
3.00066e-17
2.99001e-17
2.97948e-17
2.96857e-17
2.95805e-17
2.94724e-17
2.93674e-17
2.92598e-17
2.9151e-17
2.9039e-17
2.8932e-17
2.88186e-17
2.86531e-17
2.86584e-17
2.85218e-17
2.82577e-17
2.81487e-17
2.80123e-17
2.78586e-17
2.76527e-17
2.74239e-17
2.73356e-17
2.71205e-17
2.67655e-17
2.6574e-17
3.66386e-17
3.63112e-17
3.57835e-17
3.54759e-17
3.51541e-17
3.48288e-17
3.45508e-17
3.42775e-17
3.4023e-17
3.38036e-17
3.3568e-17
3.33667e-17
3.31685e-17
3.29552e-17
3.27686e-17
3.25842e-17
3.24058e-17
3.22275e-17
3.20531e-17
3.18776e-17
3.17053e-17
3.15292e-17
3.13566e-17
3.11824e-17
3.10098e-17
3.08312e-17
3.06526e-17
3.04699e-17
3.02934e-17
3.01152e-17
2.99413e-17
2.97638e-17
2.95877e-17
2.94103e-17
2.92374e-17
2.90611e-17
2.88879e-17
2.87109e-17
2.85353e-17
2.83565e-17
2.81765e-17
2.7991e-17
2.78037e-17
2.75891e-17
2.73883e-17
2.71831e-17
2.69491e-17
2.67361e-17
2.6464e-17
2.61716e-17
2.59415e-17
2.56249e-17
2.52198e-17
2.49018e-17
2.44367e-17
2.40914e-17
3.91085e-17
3.86496e-17
3.78997e-17
3.7464e-17
3.70159e-17
3.65637e-17
3.61691e-17
3.57917e-17
3.54372e-17
3.5111e-17
3.47992e-17
3.45104e-17
3.42269e-17
3.39556e-17
3.36964e-17
3.34438e-17
3.3194e-17
3.29481e-17
3.27043e-17
3.24631e-17
3.22213e-17
3.19779e-17
3.17357e-17
3.14911e-17
3.12459e-17
3.10002e-17
3.07567e-17
3.05093e-17
3.02629e-17
3.00136e-17
2.97677e-17
2.95198e-17
2.92765e-17
2.9031e-17
2.87902e-17
2.85446e-17
2.83037e-17
2.80585e-17
2.78161e-17
2.75676e-17
2.73185e-17
2.70606e-17
2.68036e-17
2.65279e-17
2.62452e-17
2.59581e-17
2.56399e-17
2.52987e-17
2.49718e-17
2.46023e-17
2.41502e-17
2.36771e-17
2.33483e-17
2.28803e-17
2.20765e-17
2.16208e-17
4.15504e-17
4.09483e-17
3.99888e-17
3.94221e-17
3.88444e-17
3.82697e-17
3.77606e-17
3.72787e-17
3.68302e-17
3.64166e-17
3.60153e-17
3.56448e-17
3.52904e-17
3.49513e-17
3.46163e-17
3.42981e-17
3.39754e-17
3.3669e-17
3.33518e-17
3.30496e-17
3.27322e-17
3.24323e-17
3.21138e-17
3.18112e-17
3.14889e-17
3.11841e-17
3.08565e-17
3.05496e-17
3.02202e-17
2.99139e-17
2.9585e-17
2.92816e-17
2.89576e-17
2.86571e-17
2.83338e-17
2.80361e-17
2.77153e-17
2.74154e-17
2.70929e-17
2.67892e-17
2.64606e-17
2.6146e-17
2.58043e-17
2.54689e-17
2.51077e-17
2.47343e-17
2.43329e-17
2.3941e-17
2.34542e-17
2.29425e-17
2.25259e-17
2.19516e-17
2.12494e-17
2.06795e-17
1.98054e-17
1.91829e-17
4.3961e-17
4.32202e-17
4.20262e-17
4.13329e-17
4.06243e-17
3.99214e-17
3.93104e-17
3.87257e-17
3.8185e-17
3.76823e-17
3.7209e-17
3.6758e-17
3.63355e-17
3.59195e-17
3.55233e-17
3.51287e-17
3.4751e-17
3.43679e-17
3.39977e-17
3.36162e-17
3.3248e-17
3.28672e-17
3.24953e-17
3.21117e-17
3.17372e-17
3.13488e-17
3.09684e-17
3.0576e-17
3.01928e-17
2.98e-17
2.94193e-17
2.90316e-17
2.86542e-17
2.82701e-17
2.78967e-17
2.75178e-17
2.71449e-17
2.67672e-17
2.63935e-17
2.60119e-17
2.56299e-17
2.52392e-17
2.48407e-17
2.44238e-17
2.39944e-17
2.3554e-17
2.30753e-17
2.25449e-17
2.20261e-17
2.15053e-17
2.07829e-17
2.00221e-17
1.95034e-17
1.88051e-17
1.74973e-17
1.677e-17
4.63262e-17
4.54369e-17
4.40084e-17
4.31968e-17
4.23633e-17
4.15239e-17
4.08088e-17
4.01309e-17
3.94995e-17
3.89151e-17
3.83711e-17
3.78449e-17
3.73554e-17
3.68687e-17
3.64182e-17
3.59538e-17
3.55215e-17
3.50618e-17
3.46417e-17
3.41831e-17
3.37663e-17
3.32998e-17
3.28838e-17
3.24111e-17
3.19925e-17
3.15106e-17
3.10886e-17
3.0596e-17
3.0173e-17
2.96787e-17
2.92618e-17
2.87734e-17
2.83642e-17
2.7882e-17
2.74783e-17
2.6994e-17
2.65929e-17
2.61161e-17
2.57115e-17
2.5231e-17
2.48191e-17
2.43283e-17
2.38948e-17
2.33884e-17
2.29244e-17
2.23717e-17
2.18339e-17
2.12576e-17
2.06456e-17
1.98573e-17
1.92379e-17
1.85139e-17
1.74756e-17
1.65962e-17
1.53408e-17
1.44147e-17
4.86366e-17
4.75851e-17
4.59421e-17
4.49582e-17
4.40165e-17
4.30771e-17
4.22413e-17
4.14827e-17
4.07681e-17
4.01174e-17
3.94882e-17
3.89148e-17
3.8348e-17
3.78225e-17
3.72814e-17
3.67846e-17
3.62604e-17
3.57804e-17
3.52535e-17
3.4779e-17
3.42467e-17
3.37738e-17
3.32351e-17
3.27564e-17
3.22102e-17
3.17269e-17
3.11659e-17
3.06708e-17
3.00999e-17
2.96069e-17
2.90419e-17
2.85614e-17
2.80089e-17
2.75342e-17
2.69873e-17
2.6523e-17
2.59853e-17
2.55122e-17
2.49778e-17
2.45075e-17
2.39709e-17
2.3485e-17
2.29345e-17
2.24179e-17
2.18305e-17
2.12641e-17
2.06435e-17
1.9983e-17
1.92373e-17
1.85586e-17
1.77072e-17
1.65786e-17
1.58436e-17
1.49351e-17
1.3137e-17
1.21e-17
5.08799e-17
4.96619e-17
4.77564e-17
4.66522e-17
4.5573e-17
4.45215e-17
4.35963e-17
4.27535e-17
4.1966e-17
4.12464e-17
4.05609e-17
3.99263e-17
3.92984e-17
3.87167e-17
3.81225e-17
3.75726e-17
3.69853e-17
3.64506e-17
3.58623e-17
3.53326e-17
3.47337e-17
3.42055e-17
3.35912e-17
3.30644e-17
3.24394e-17
3.191e-17
3.12612e-17
3.07157e-17
3.00506e-17
2.95085e-17
2.88474e-17
2.83299e-17
2.76876e-17
2.718e-17
2.65415e-17
2.60448e-17
2.54053e-17
2.49164e-17
2.4294e-17
2.37973e-17
2.31653e-17
2.26631e-17
2.20232e-17
2.14816e-17
2.08155e-17
2.02278e-17
1.94885e-17
1.88052e-17
1.80062e-17
1.71536e-17
1.61766e-17
1.52863e-17
1.4106e-17
1.28634e-17
1.11008e-17
9.86888e-18
5.30419e-17
5.16652e-17
4.947e-17
4.82879e-17
4.70476e-17
4.58869e-17
4.49049e-17
4.39683e-17
4.31314e-17
4.23443e-17
4.16269e-17
4.0913e-17
4.02725e-17
3.96032e-17
3.90054e-17
3.83484e-17
3.77732e-17
3.71091e-17
3.65459e-17
3.58634e-17
3.5304e-17
3.45997e-17
3.40399e-17
3.33164e-17
3.27548e-17
3.20132e-17
3.14372e-17
3.06701e-17
3.00998e-17
2.93264e-17
2.87695e-17
2.80178e-17
2.74809e-17
2.67337e-17
2.62e-17
2.5453e-17
2.49333e-17
2.42153e-17
2.36778e-17
2.29646e-17
2.2435e-17
2.17214e-17
2.11702e-17
2.04525e-17
1.9856e-17
1.9096e-17
1.8414e-17
1.75924e-17
1.67906e-17
1.58282e-17
1.48807e-17
1.36567e-17
1.24129e-17
1.13806e-17
9.08285e-18
7.70691e-18
5.50868e-17
5.35006e-17
5.09704e-17
4.96986e-17
4.8363e-17
4.71162e-17
4.60601e-17
4.50792e-17
4.41885e-17
4.33674e-17
4.25937e-17
4.18576e-17
4.11571e-17
4.04634e-17
3.97919e-17
3.9116e-17
3.84594e-17
3.77789e-17
3.71197e-17
3.64273e-17
3.57589e-17
3.50526e-17
3.438e-17
3.36612e-17
3.30105e-17
3.22941e-17
3.1586e-17
3.07696e-17
3.00036e-17
2.91846e-17
2.84736e-17
2.77337e-17
2.7082e-17
2.63506e-17
2.57002e-17
2.49799e-17
2.43392e-17
2.36078e-17
2.2986e-17
2.22917e-17
2.1672e-17
2.09603e-17
2.03249e-17
1.95992e-17
1.89257e-17
1.8156e-17
1.74249e-17
1.657e-17
1.56934e-17
1.46809e-17
1.36733e-17
1.24068e-17
1.10813e-17
9.74397e-18
7.25622e-18
5.67159e-18
5.70196e-17
5.52125e-17
5.23874e-17
5.09229e-17
4.95204e-17
4.81912e-17
4.70587e-17
4.60639e-17
4.51234e-17
4.42807e-17
4.34626e-17
4.27191e-17
4.1955e-17
4.12656e-17
4.05196e-17
3.98536e-17
3.90962e-17
3.84374e-17
3.76537e-17
3.69949e-17
3.61769e-17
3.55149e-17
3.46741e-17
3.40108e-17
3.32257e-17
3.26535e-17
3.17128e-17
3.09004e-17
2.98593e-17
2.9057e-17
2.81041e-17
2.75738e-17
2.67679e-17
2.6139e-17
2.52441e-17
2.4632e-17
2.37499e-17
2.31543e-17
2.23135e-17
2.16953e-17
2.08567e-17
2.02699e-17
1.94497e-17
1.88237e-17
1.79958e-17
1.73175e-17
1.64287e-17
1.56367e-17
1.46669e-17
1.3711e-17
1.25197e-17
1.12139e-17
9.85271e-18
8.35212e-18
5.55827e-18
3.74532e-18
5.89649e-17
5.68408e-17
5.37232e-17
5.21137e-17
5.06788e-17
4.93616e-17
4.82304e-17
4.72164e-17
4.62924e-17
4.54326e-17
4.46207e-17
4.38362e-17
4.30748e-17
4.23185e-17
4.15698e-17
4.08115e-17
4.00513e-17
3.92749e-17
3.84913e-17
3.76848e-17
3.68704e-17
3.603e-17
3.51545e-17
3.41582e-17
3.31768e-17
3.22798e-17
3.13619e-17
3.06328e-17
3.01387e-17
2.94081e-17
2.84893e-17
2.7583e-17
2.65957e-17
2.56013e-17
2.47291e-17
2.38881e-17
2.30749e-17
2.22682e-17
2.14792e-17
2.07117e-17
1.9956e-17
1.91953e-17
1.84421e-17
1.76889e-17
1.69236e-17
1.61405e-17
1.53271e-17
1.44695e-17
1.35369e-17
1.25268e-17
1.14023e-17
1.00842e-17
8.6353e-18
7.03661e-18
3.92857e-18
1.80367e-18
6.05278e-17
5.73384e-17
5.45737e-17
5.28131e-17
5.13317e-17
5.00476e-17
4.89338e-17
4.79377e-17
4.70265e-17
4.61742e-17
4.53629e-17
4.45755e-17
4.38025e-17
4.30314e-17
4.22586e-17
4.14747e-17
4.06806e-17
3.9868e-17
3.90417e-17
3.81944e-17
3.73338e-17
3.64504e-17
3.5592e-17
3.49501e-17
3.44558e-17
3.38012e-17
3.27526e-17
3.12374e-17
2.95276e-17
2.8014e-17
2.69686e-17
2.63158e-17
2.58219e-17
2.51766e-17
2.43183e-17
2.34327e-17
2.2573e-17
2.17233e-17
2.0897e-17
2.00823e-17
1.92886e-17
1.85014e-17
1.77294e-17
1.69559e-17
1.6183e-17
1.5393e-17
1.45823e-17
1.37283e-17
1.28166e-17
1.18188e-17
1.07063e-17
9.42218e-18
7.94065e-18
6.18277e-18
3.42166e-18
2.37572e-19
)
;

boundaryField
{
    top
    {
        type            zeroGradient;
    }
    bottom
    {
        type            zeroGradient;
    }
    rotatingWall
    {
        type            zeroGradient;
    }
    wall
    {
        type            zeroGradient;
    }
    frontAndBack
    {
        type            empty;
    }
}


// ************************************************************************* //
