/*--------------------------------*- C++ -*----------------------------------*\
| =========                 |                                                 |
| \\      /  F ield         | OpenFOAM: The Open Source CFD Toolbox           |
|  \\    /   O peration     | Version:  5.0                                   |
|   \\  /    A nd           | Web:      www.OpenFOAM.org                      |
|    \\/     M anipulation  |                                                 |
\*---------------------------------------------------------------------------*/
FoamFile
{
    version     2.0;
    format      ascii;
    class       volVectorField;
    location    "3";
    object      U;
}
// * * * * * * * * * * * * * * * * * * * * * * * * * * * * * * * * * * * * * //

dimensions      [0 1 -1 0 0 0 0];

internalField   nonuniform List<vector> 
25
(
(1 -3.44416e-09 6.46481e-23)
(1 4.0308e-10 3.23241e-23)
(1 7.29328e-09 -3.2324e-23)
(1 1.11814e-08 5.13592e-29)
(1 -7.32052e-10 3.26281e-23)
(0.92 -1.11834e-08 -2.79794e-23)
(0.92 3.82522e-09 8.02292e-29)
(0.92 2.49802e-08 5.59589e-23)
(0.92 3.15197e-08 -3.0592e-29)
(0.92 4.76521e-09 -5.64503e-23)
(0.76 -1.68233e-08 2.79793e-23)
(0.76 1.68652e-08 2.79794e-23)
(0.76 5.37292e-08 2.79797e-23)
(0.76 5.64381e-08 -1.02203e-28)
(0.76 2.52422e-08 -2.8262e-23)
(0.52 -1.489e-08 5.59588e-23)
(0.52 2.83852e-08 2.79796e-23)
(0.52 7.07645e-08 5.08722e-28)
(0.52 7.07414e-08 -2.79794e-23)
(0.52 3.82858e-08 2.83808e-28)
(0.2 -5.56255e-09 3.98787e-23)
(0.2 1.36789e-08 1.99393e-23)
(0.2 3.1874e-08 -1.60279e-28)
(0.2 3.13569e-08 0)
(0.2 1.76839e-08 0)
)
;

boundaryField
{
    top
    {
        type            fixedValue;
        value           uniform (0 0 0);
    }
    bottom
    {
        type            symmetryPlane;
    }
    inlet
    {
        type            pressureInletVelocity;
        value           nonuniform 0();
    }
    outlet
    {
        type            inletOutlet;
        inletValue      uniform (1 0 0);
        value           nonuniform List<vector> 5((1 -7.32052e-10 3.26281e-23) (0.92 4.76521e-09 -5.64503e-23) (0.76 2.52422e-08 -2.8262e-23) (0.52 3.82858e-08 2.83808e-28) (0.2 1.76839e-08 0));
    }
    frontAndBack
    {
        type            empty;
    }
    procBoundary1to0
    {
        type            processor;
        value           nonuniform List<vector> 5((1 -1.02553e-09 1.18959e-29) (0.92 -4.12885e-09 -2.79794e-23) (0.76 -8.97056e-09 -5.59589e-23) (0.52 -1.07361e-08 5.59588e-23) (0.2 -4.60723e-09 3.98787e-23));
    }
}


// ************************************************************************* //
