/*--------------------------------*- C++ -*----------------------------------*\
| =========                 |                                                 |
| \\      /  F ield         | OpenFOAM: The Open Source CFD Toolbox           |
|  \\    /   O peration     | Version:  5.0                                   |
|   \\  /    A nd           | Web:      www.OpenFOAM.org                      |
|    \\/     M anipulation  |                                                 |
\*---------------------------------------------------------------------------*/
FoamFile
{
    version     2.0;
    format      ascii;
    class       volVectorField;
    location    "3";
    object      U;
}
// * * * * * * * * * * * * * * * * * * * * * * * * * * * * * * * * * * * * * //

dimensions      [0 1 -1 0 0 0 0];

internalField   nonuniform List<vector> 
25
(
(0.985368 0.00241454 9.08006e-23)
(0.939611 0.000871305 1.29202e-23)
(0.937442 0.000170078 -4.53926e-23)
(0.936087 0.000102578 5.20766e-24)
(0.93283 -0.00212485 8.52206e-24)
(0.789871 0.00554131 -3.46574e-23)
(0.796566 0.00403346 -5.9465e-23)
(0.797959 0.000736757 6.57433e-23)
(0.798567 0.00034012 6.53922e-24)
(0.795583 -0.000823549 -1.48581e-22)
(0.593506 0.00254876 4.81439e-23)
(0.610722 0.00306307 4.06496e-23)
(0.613773 0.00047813 3.03819e-23)
(0.614966 2.75223e-05 -1.2359e-24)
(0.613648 -0.000456759 -5.72662e-23)
(0.396744 -0.000590879 1.2299e-22)
(0.405155 0.0011393 1.18357e-23)
(0.407871 0.00014828 -2.58053e-24)
(0.407954 -0.0002372 -2.14727e-23)
(0.410056 0.00278345 -1.85502e-22)
(0.199603 -0.0051668 7.95332e-25)
(0.200866 0.000632836 1.65037e-23)
(0.202405 0.000111791 1.10191e-24)
(0.20125 -1.56491e-05 0)
(0.205537 0.0115103 0)
)
;

boundaryField
{
    top
    {
        type            fixedValue;
        value           uniform (0 0 0);
    }
    bottom
    {
        type            symmetryPlane;
    }
    inlet
    {
        type            pressureInletVelocity;
        value           nonuniform 0();
    }
    outlet
    {
        type            inletOutlet;
        inletValue      uniform (1 0 0);
        value           nonuniform List<vector> 5((0.93283 -0.00212485 8.52206e-24) (0.795583 -0.000823549 -1.48581e-22) (0.613648 -0.000456759 -5.72662e-23) (0.410056 0.00278345 -1.85502e-22) (0.205537 0.0115103 0));
    }
    frontAndBack
    {
        type            empty;
    }
    procBoundary1to0
    {
        type            processor;
        value           nonuniform List<vector> 5((0.981194 -0.00205175 3.29813e-23) (0.786648 -0.00135348 -4.09475e-23) (0.591119 0.000274307 -5.462e-23) (0.395296 0.00143894 -5.21575e-23) (0.199138 0.00565553 3.40528e-23));
    }
}


// ************************************************************************* //
