/*--------------------------------*- C++ -*----------------------------------*\
| =========                 |                                                 |
| \\      /  F ield         | OpenFOAM: The Open Source CFD Toolbox           |
|  \\    /   O peration     | Version:  5.0                                   |
|   \\  /    A nd           | Web:      www.OpenFOAM.org                      |
|    \\/     M anipulation  |                                                 |
\*---------------------------------------------------------------------------*/
FoamFile
{
    version     2.0;
    format      ascii;
    class       volVectorField;
    location    "2.1";
    object      U;
}
// * * * * * * * * * * * * * * * * * * * * * * * * * * * * * * * * * * * * * //

dimensions      [0 1 -1 0 0 0 0];

internalField   nonuniform List<vector> 
25
(
(0.999214 0.00246665 9.07983e-23)
(0.952604 0.00088723 1.2359e-23)
(0.950286 0.000173971 -4.55006e-23)
(0.94895 0.000104771 5.30501e-24)
(0.945627 -0.00217535 7.8788e-24)
(0.800114 0.00565981 -3.44558e-23)
(0.807011 0.00412014 -6.06288e-23)
(0.808374 0.000756767 6.56483e-23)
(0.809032 0.000347144 6.65696e-24)
(0.805983 -0.00084288 -1.5011e-22)
(0.600597 0.00259965 4.84403e-23)
(0.618192 0.00312906 4.09146e-23)
(0.621272 0.000491521 3.04532e-23)
(0.622518 2.87001e-05 -1.25931e-24)
(0.621163 -0.000461946 -5.76947e-23)
(0.401106 -0.000596558 1.24224e-22)
(0.409726 0.00116461 1.16708e-23)
(0.412483 0.000153401 -2.6297e-24)
(0.412588 -0.000241054 -2.14868e-23)
(0.414714 0.00283273 -1.88397e-22)
(0.20162 -0.00523676 3.18969e-25)
(0.202948 0.000646671 1.65051e-23)
(0.204515 0.000115048 1.12342e-24)
(0.20335 -1.64214e-05 0)
(0.207701 0.0116802 0)
)
;

boundaryField
{
    top
    {
        type            fixedValue;
        value           uniform (0 0 0);
    }
    bottom
    {
        type            symmetryPlane;
    }
    inlet
    {
        type            pressureInletVelocity;
        value           nonuniform 0();
    }
    outlet
    {
        type            inletOutlet;
        inletValue      uniform (1 0 0);
        value           nonuniform List<vector> 5((0.945627 -0.00217535 7.8788e-24) (0.805983 -0.00084288 -1.5011e-22) (0.621163 -0.000461946 -5.76947e-23) (0.414714 0.00283273 -1.88397e-22) (0.207701 0.0116802 0));
    }
    frontAndBack
    {
        type            empty;
    }
    procBoundary1to0
    {
        type            processor;
        value           nonuniform List<vector> 5((0.995062 -0.00210261 3.36792e-23) (0.796917 -0.00138908 -4.0949e-23) (0.598228 0.000280329 -5.46197e-23) (0.399669 0.00146278 -5.36126e-23) (0.201163 0.00573633 3.40688e-23));
    }
}


// ************************************************************************* //
