/*--------------------------------*- C++ -*----------------------------------*\
| =========                 |                                                 |
| \\      /  F ield         | OpenFOAM: The Open Source CFD Toolbox           |
|  \\    /   O peration     | Version:  5.0                                   |
|   \\  /    A nd           | Web:      www.OpenFOAM.org                      |
|    \\/     M anipulation  |                                                 |
\*---------------------------------------------------------------------------*/
FoamFile
{
    version     2.0;
    format      ascii;
    class       surfaceScalarField;
    location    "1.1";
    object      phi;
}
// * * * * * * * * * * * * * * * * * * * * * * * * * * * * * * * * * * * * * //

dimensions      [0 3 -1 0 0 0 0];

internalField   nonuniform List<scalar> 
40
(
0.0002
-1.71949e-11
0.0002
8.7576e-12
0.0002
6.40204e-12
0.0002
-1.42271e-11
-3.7885e-12
0.000184
-5.60446e-12
0.000184
-1.9103e-12
0.000184
7.20996e-13
0.000184
-1.78171e-12
-2.53384e-12
0.000152
2.69044e-12
0.000152
-1.71224e-11
0.000152
-8.44984e-12
0.000152
8.86463e-12
-3.78131e-13
0.000104
8.45482e-12
0.000104
-2.19297e-11
0.000104
-1.23817e-11
0.000104
1.39156e-11
1.84195e-12
4e-05
4e-05
4e-05
4e-05
)
;

boundaryField
{
    top
    {
        type            calculated;
        value           uniform 0;
    }
    bottom
    {
        type            symmetryPlane;
        value           uniform 0;
    }
    inlet
    {
        type            calculated;
        value           nonuniform 0();
    }
    outlet
    {
        type            calculated;
        value           nonuniform List<scalar> 5(0.0002 0.000184 0.000152 0.000104 4e-05);
    }
    frontAndBack
    {
        type            empty;
        value           nonuniform 0();
    }
    procBoundary1to0
    {
        type            processor;
        value           nonuniform List<scalar> 5(-0.0002 -0.000184 -0.000152 -0.000104 -4e-05);
    }
}


// ************************************************************************* //
