/*--------------------------------*- C++ -*----------------------------------*\
| =========                 |                                                 |
| \\      /  F ield         | OpenFOAM: The Open Source CFD Toolbox           |
|  \\    /   O peration     | Version:  5.0                                   |
|   \\  /    A nd           | Web:      www.OpenFOAM.org                      |
|    \\/     M anipulation  |                                                 |
\*---------------------------------------------------------------------------*/
FoamFile
{
    version     2.0;
    format      ascii;
    class       volScalarField;
    location    "1.1";
    object      shearRate;
}
// * * * * * * * * * * * * * * * * * * * * * * * * * * * * * * * * * * * * * //

dimensions      [0 0 -1 0 0 0 0];

internalField   nonuniform List<scalar> 
50
(
1.12735e-14
2.67466e-14
2.31602e-14
4.57745e-15
2.16895e-14
2.23985e-14
2.9648e-14
4.39379e-14
9.6218e-15
7.29444e-16
1.10139e-14
2.4944e-14
4.44384e-14
7.14562e-15
2.40957e-14
2.33771e-14
2.42014e-14
6.55891e-14
2.34284e-14
6.6701e-14
4.40388e-14
2.50773e-14
2.32944e-14
7.56529e-15
2.25751e-14
2.30557e-14
8.61347e-15
6.59168e-14
4.39712e-14
4.45258e-15
4.38201e-14
4.42335e-14
8.73513e-14
6.51165e-14
1.08617e-13
2.36816e-14
2.30687e-14
2.48287e-14
2.25638e-14
6.01335e-15
2.32458e-14
1.90868e-15
4.41453e-14
2.2063e-14
4.33948e-14
2.38674e-14
6.6186e-14
1.52456e-13
1.30213e-13
1.95279e-13
)
;

boundaryField
{
    top
    {
        type            zeroGradient;
    }
    bottom
    {
        type            symmetryPlane;
    }
    inlet
    {
        type            zeroGradient;
    }
    outlet
    {
        type            zeroGradient;
    }
    frontAndBack
    {
        type            empty;
    }
    procBoundary1to0
    {
        type            processor;
        value           nonuniform List<scalar> 10(2.1755e-14 4.3582e-14 4.44418e-14 1.36169e-14 7.56678e-15 1.70183e-15 2.33663e-14 2.39641e-14 2.88599e-15 2.23781e-14);
    }
}


// ************************************************************************* //
