/*--------------------------------*- C++ -*----------------------------------*\
| =========                 |                                                 |
| \\      /  F ield         | OpenFOAM: The Open Source CFD Toolbox           |
|  \\    /   O peration     | Version:  5.0                                   |
|   \\  /    A nd           | Web:      www.OpenFOAM.org                      |
|    \\/     M anipulation  |                                                 |
\*---------------------------------------------------------------------------*/
FoamFile
{
    version     2.0;
    format      ascii;
    class       surfaceScalarField;
    location    "75";
    object      phi;
}
// * * * * * * * * * * * * * * * * * * * * * * * * * * * * * * * * * * * * * //

dimensions      [0 3 -1 0 0 0 0];

internalField   nonuniform List<scalar> 
3052
(
-2.755e-18
-5.21281e-18
-5.13732e-19
-2.33115e-18
1.11692e-17
-1.23533e-17
2.25273e-17
-1.21161e-17
3.18548e-17
-9.74028e-18
4.27437e-17
-1.1246e-17
5.4677e-17
-1.2287e-17
6.66322e-17
-1.2295e-17
7.84629e-17
-1.21738e-17
9.01774e-17
-1.20399e-17
1.01566e-16
-1.16989e-17
1.12449e-16
-1.11711e-17
1.22658e-16
-1.04784e-17
1.321e-16
-9.69158e-18
1.40685e-16
-8.83634e-18
1.48347e-16
-7.90306e-18
1.54909e-16
-6.80048e-18
1.60469e-16
-5.77766e-18
1.65036e-16
-4.77902e-18
1.68609e-16
-3.75757e-18
1.71073e-16
-2.6372e-18
1.72478e-16
-1.54039e-18
1.72799e-16
-4.38179e-19
1.72175e-16
5.50111e-19
1.70511e-16
1.59785e-18
1.67944e-16
2.53023e-18
1.64477e-16
3.4303e-18
1.60365e-16
4.10734e-18
1.55597e-16
4.76225e-18
1.50429e-16
5.20003e-18
1.44822e-16
5.67102e-18
1.38949e-16
6.01301e-18
1.32692e-16
6.44189e-18
1.26238e-16
6.69547e-18
1.19536e-16
6.95887e-18
1.12783e-16
7.0366e-18
1.05873e-16
7.18966e-18
9.89731e-17
7.19133e-18
9.20122e-17
7.24031e-18
8.5102e-17
7.18249e-18
7.81808e-17
7.15591e-18
7.13844e-17
7.01952e-18
6.46427e-17
6.94338e-18
5.80443e-17
6.80598e-18
5.15433e-17
6.71185e-18
4.52144e-17
6.54977e-18
3.90506e-17
6.38776e-18
3.31061e-17
6.17762e-18
2.73284e-17
6.00361e-18
2.18434e-17
5.7251e-18
1.66579e-17
5.41447e-18
1.18711e-17
4.93892e-18
7.81757e-18
4.36071e-18
3.51273e-18
4.35216e-18
1.24297e-18
2.32103e-18
1.2439e-18
3.98226e-18
-9.11159e-18
8.67325e-18
-8.85142e-18
1.09265e-17
-1.70579e-17
1.617e-17
-1.84316e-17
2.61027e-17
-2.07378e-17
3.59818e-17
-2.20968e-17
4.57141e-17
-2.28477e-17
5.58184e-17
-2.31746e-17
6.60307e-17
-2.31105e-17
7.60181e-17
-2.27453e-17
8.56934e-17
-2.20341e-17
9.49429e-17
-2.10195e-17
1.03655e-16
-1.97379e-17
1.11681e-16
-1.82712e-17
1.18948e-16
-1.66176e-17
1.25361e-16
-1.48222e-17
1.3099e-16
-1.28805e-17
1.35733e-16
-1.09594e-17
1.39582e-16
-8.99503e-18
1.42477e-16
-7.00337e-18
1.44498e-16
-4.92572e-18
1.45582e-16
-2.86621e-18
1.45803e-16
-8.04006e-19
1.45091e-16
1.1278e-18
1.43589e-16
3.03955e-18
1.4127e-16
4.78608e-18
1.38328e-16
6.37934e-18
1.34732e-16
7.70037e-18
1.30676e-16
8.89353e-18
1.26112e-16
9.885e-18
1.21239e-16
1.08139e-17
1.16043e-16
1.15651e-17
1.10697e-16
1.22791e-17
1.05125e-16
1.28013e-17
9.94486e-17
1.32379e-17
9.36012e-17
1.34699e-17
8.77615e-17
1.36543e-17
8.18571e-17
1.3684e-17
7.60033e-17
1.36728e-17
7.01459e-17
1.35381e-17
6.43765e-17
1.33985e-17
5.8617e-17
1.31752e-17
5.29903e-17
1.29718e-17
4.74666e-17
1.27226e-17
4.21049e-17
1.24949e-17
3.68651e-17
1.22195e-17
3.17861e-17
1.19233e-17
2.68554e-17
1.15568e-17
2.21787e-17
1.11945e-17
1.7691e-17
1.06985e-17
1.34009e-17
1.00918e-17
9.54611e-18
9.42722e-18
5.7987e-18
8.14371e-18
3.55703e-18
6.98326e-18
1.09282e-18
4.67564e-18
2.3301e-18
-1.63631e-18
-8.02798e-18
2.75525e-18
-1.43902e-17
7.59519e-18
-2.21431e-17
1.3739e-17
-2.53499e-17
2.06633e-17
-2.82166e-17
2.85618e-17
-3.03122e-17
3.67027e-17
-3.12007e-17
4.50345e-17
-3.16546e-17
5.34555e-17
-3.16682e-17
6.1764e-17
-3.11339e-17
6.97845e-17
-3.01052e-17
7.73985e-17
-2.86849e-17
8.45422e-17
-2.69511e-17
9.11396e-17
-2.49089e-17
9.70947e-17
-2.26138e-17
1.02369e-16
-2.01092e-17
1.06948e-16
-1.74689e-17
1.10763e-16
-1.47498e-17
1.13778e-16
-1.19904e-17
1.16e-16
-9.17726e-18
1.1745e-16
-6.34206e-18
1.18149e-16
-3.50248e-18
1.18111e-16
-7.27473e-19
1.17357e-16
1.95178e-18
1.15951e-16
4.49414e-18
1.13957e-16
6.8591e-18
1.11418e-16
8.97027e-18
1.0837e-16
1.08261e-17
1.04878e-16
1.24357e-17
1.01013e-16
1.38219e-17
9.68546e-17
1.5016e-17
9.2448e-17
1.60365e-17
8.78645e-17
1.68811e-17
8.31547e-17
1.75335e-17
7.83734e-17
1.80042e-17
7.35405e-17
1.83147e-17
6.86951e-17
1.84815e-17
6.38614e-17
1.85152e-17
5.90714e-17
1.84378e-17
5.43317e-17
1.82663e-17
4.96716e-17
1.80118e-17
4.51096e-17
1.77171e-17
4.06551e-17
1.73974e-17
3.63078e-17
1.70619e-17
3.2092e-17
1.67017e-17
2.80079e-17
1.6315e-17
2.4058e-17
1.58903e-17
2.02562e-17
1.54362e-17
1.66259e-17
1.49038e-17
1.31876e-17
1.42745e-17
9.97379e-18
1.34768e-17
6.92217e-18
1.23507e-17
4.46233e-18
1.11333e-17
2.08177e-18
9.06143e-18
5.45772e-19
6.28314e-18
2.8813e-18
-1.7892e-18
-6.14384e-18
2.80355e-18
-1.8478e-17
5.50996e-18
-2.49504e-17
1.00247e-17
-2.99971e-17
1.56693e-17
-3.39389e-17
2.16681e-17
-3.62547e-17
2.80573e-17
-3.74414e-17
3.47026e-17
-3.81058e-17
4.14152e-17
-3.81311e-17
4.80017e-17
-3.74602e-17
5.43559e-17
-3.62286e-17
6.03912e-17
-3.4513e-17
6.60285e-17
-3.23799e-17
7.12022e-17
-2.98804e-17
7.58595e-17
-2.70626e-17
7.99549e-17
-2.39973e-17
8.34571e-17
-2.07566e-17
8.632e-17
-1.7409e-17
8.85288e-17
-1.39926e-17
9.00763e-17
-1.05375e-17
9.09901e-17
-7.07242e-18
9.12818e-17
-3.64595e-18
9.09976e-17
-3.03012e-19
9.01541e-17
2.90865e-18
8.88165e-17
5.94731e-18
8.70134e-17
8.75486e-18
8.48008e-17
1.1279e-17
8.21894e-17
1.34955e-17
7.92516e-17
1.54122e-17
7.60036e-17
1.70489e-17
7.25256e-17
1.84177e-17
6.88402e-17
1.95344e-17
6.50474e-17
2.04234e-17
6.11639e-17
2.11012e-17
5.72674e-17
2.15815e-17
5.33555e-17
2.18858e-17
4.9494e-17
2.20192e-17
4.56792e-17
2.20064e-17
4.19556e-17
2.18645e-17
3.83258e-17
2.16193e-17
3.48201e-17
2.12969e-17
3.14215e-17
2.09177e-17
2.81524e-17
2.04918e-17
2.50008e-17
2.00384e-17
2.19761e-17
1.95633e-17
1.90649e-17
1.90681e-17
1.6277e-17
1.85451e-17
1.36107e-17
1.79937e-17
1.11039e-17
1.73889e-17
8.73228e-18
1.66254e-17
6.479e-18
1.56514e-17
4.56019e-18
1.46151e-17
2.61276e-18
1.26896e-17
1.52197e-18
1.05069e-17
6.90517e-19
7.08843e-18
3.57068e-18
1.02815e-18
-6.97491e-18
1.78729e-18
-1.87954e-17
3.84622e-18
-2.69765e-17
6.79671e-18
-3.30686e-17
1.0695e-17
-3.77761e-17
1.51085e-17
-4.05367e-17
1.9894e-17
-4.21033e-17
2.48712e-17
-4.29451e-17
2.98821e-17
-4.29791e-17
3.4805e-17
-4.22272e-17
3.9526e-17
-4.08088e-17
4.39847e-17
-3.88381e-17
4.81308e-17
-3.63882e-17
5.19081e-17
-3.35149e-17
5.52706e-17
-3.02786e-17
5.81901e-17
-2.67683e-17
6.06278e-17
-2.30521e-17
6.25604e-17
-1.92042e-17
6.39697e-17
-1.52742e-17
6.48667e-17
-1.13094e-17
6.52539e-17
-7.35422e-18
6.51637e-17
-3.46063e-18
6.46156e-17
3.22188e-19
6.36573e-17
3.94007e-18
6.23189e-17
7.34614e-18
6.06545e-17
1.04824e-17
5.86789e-17
1.32997e-17
5.64401e-17
1.57769e-17
5.39608e-17
1.79101e-17
5.12916e-17
1.9708e-17
4.845e-17
2.11824e-17
4.54883e-17
2.23704e-17
4.24407e-17
2.32873e-17
3.93861e-17
2.3957e-17
3.63546e-17
2.43958e-17
3.33885e-17
2.46385e-17
3.04941e-17
2.46936e-17
2.77089e-17
2.45853e-17
2.50367e-17
2.43463e-17
2.25057e-17
2.39974e-17
2.0121e-17
2.35557e-17
1.78912e-17
2.30473e-17
1.57889e-17
2.24999e-17
1.38166e-17
2.19243e-17
1.19614e-17
2.13341e-17
1.02176e-17
2.07349e-17
8.57944e-18
2.01251e-17
7.07525e-18
1.94828e-17
5.69403e-18
1.87678e-17
4.42269e-18
1.79421e-17
3.2791e-18
1.6925e-17
2.13952e-18
1.54653e-17
1.38744e-18
1.38824e-17
4.06556e-19
1.12423e-17
-2.00687e-19
7.74123e-18
3.37346e-18
9.34921e-19
-7.74885e-18
9.45086e-19
-1.88506e-17
1.95269e-18
-2.81044e-17
3.92614e-18
-3.50068e-17
6.37866e-18
-4.01745e-17
9.23025e-18
-4.33865e-17
1.23928e-17
-4.52936e-17
1.56893e-17
-4.62588e-17
1.89943e-17
-4.62993e-17
2.22449e-17
-4.54916e-17
2.53713e-17
-4.39493e-17
2.83154e-17
-4.17868e-17
3.10209e-17
-3.9086e-17
3.34412e-17
-3.5916e-17
3.55507e-17
-3.23606e-17
3.73138e-17
-2.85053e-17
3.87114e-17
-2.44253e-17
3.97218e-17
-2.01948e-17
4.03447e-17
-1.58754e-17
4.05757e-17
-1.15253e-17
4.04389e-17
-7.20032e-18
3.99494e-17
-2.95808e-18
3.91429e-17
1.14455e-18
3.80414e-17
5.05026e-18
3.66894e-17
8.71033e-18
3.51077e-17
1.207e-17
3.3336e-17
1.50875e-17
3.13936e-17
1.77383e-17
2.93197e-17
2.00118e-17
2.71375e-17
2.1911e-17
2.48878e-17
2.34515e-17
2.25984e-17
2.46587e-17
2.03235e-17
2.5561e-17
1.80953e-17
2.61744e-17
1.59513e-17
2.65279e-17
1.39065e-17
2.66599e-17
1.19871e-17
2.65933e-17
1.02042e-17
2.63459e-17
8.58179e-18
2.5955e-17
7.12473e-18
2.54483e-17
5.83987e-18
2.48505e-17
4.71168e-18
2.41903e-17
3.73854e-18
2.34941e-17
2.90509e-18
2.27785e-17
2.20537e-18
2.20606e-17
1.62747e-18
2.13484e-17
1.17168e-18
2.06291e-17
8.27147e-19
1.98879e-17
5.89709e-19
1.91111e-17
4.18775e-19
1.81921e-17
2.39357e-19
1.70617e-17
1.83744e-19
1.58184e-17
-9.62082e-20
1.37962e-17
2.5609e-20
1.12511e-17
2.82568e-20
7.72135e-18
3.39948e-18
1.66319e-20
-7.80972e-18
1.80863e-19
-1.89911e-17
6.74159e-19
-2.85243e-17
1.55106e-18
-3.58215e-17
2.59538e-18
-4.11968e-17
3.91528e-18
-4.47427e-17
5.48244e-18
-4.69258e-17
7.14304e-18
-4.79912e-17
8.83357e-18
-4.80521e-17
1.05158e-17
-4.72296e-17
1.21217e-17
-4.56072e-17
1.36052e-17
-4.33141e-17
1.49243e-17
-4.04389e-17
1.60494e-17
-3.70651e-17
1.69528e-17
-3.3285e-17
1.76118e-17
-2.91828e-17
1.80088e-17
-2.4843e-17
1.8136e-17
-2.03416e-17
1.79904e-17
-1.57533e-17
1.7584e-17
-1.11393e-17
1.69328e-17
-6.56711e-18
1.60601e-17
-2.09811e-18
1.49869e-17
2.20395e-18
1.37406e-17
6.28556e-18
1.23474e-17
1.00895e-17
1.08394e-17
1.35718e-17
9.24005e-18
1.66866e-17
7.58005e-18
1.9411e-17
5.88032e-18
2.17316e-17
4.17203e-18
2.36517e-17
2.47719e-18
2.51789e-17
8.3382e-19
2.63437e-17
-7.33907e-19
2.71687e-17
-2.18988e-18
2.76699e-17
-3.51485e-18
2.78843e-17
-4.68568e-18
2.78643e-17
-5.69367e-18
2.76316e-17
-6.5189e-18
2.72037e-17
-7.14988e-18
2.66184e-17
-7.5807e-18
2.59192e-17
-7.82009e-18
2.51348e-17
-7.87461e-18
2.42967e-17
-7.75763e-18
2.34287e-17
-7.47908e-18
2.25571e-17
-7.05402e-18
2.16994e-17
-6.49894e-18
2.08633e-17
-5.83431e-18
2.00422e-17
-5.06877e-18
1.92264e-17
-4.23546e-18
1.83755e-17
-3.38614e-18
1.74491e-17
-2.52608e-18
1.63667e-17
-1.80889e-18
1.48911e-17
-1.04623e-18
1.31987e-17
-6.52067e-19
1.07107e-17
-2.5215e-19
7.27814e-18
3.14592e-18
-3.27455e-19
-7.4255e-18
-4.13173e-19
-1.87604e-17
-5.99207e-19
-2.8207e-17
-7.81007e-19
-3.55435e-17
-9.73733e-19
-4.09912e-17
-1.01834e-18
-4.47374e-17
-9.09898e-19
-4.70886e-17
-7.07465e-19
-4.82471e-17
-4.60831e-19
-4.83425e-17
-2.3907e-19
-4.7496e-17
-6.13745e-20
-4.58281e-17
4.64076e-20
-4.34629e-17
5.88441e-20
-4.0487e-17
-4.463e-20
-3.69932e-17
-2.82112e-19
-3.30767e-17
-6.6717e-19
-2.88267e-17
-1.20721e-18
-2.43302e-17
-1.90802e-18
-1.96708e-17
-2.76453e-18
-1.49254e-17
-3.76542e-18
-1.01654e-17
-4.89346e-18
-5.46313e-18
-6.13022e-18
-8.83085e-19
-7.45449e-18
3.51067e-18
-8.84495e-18
7.65845e-18
-1.02742e-17
1.15055e-17
-1.1718e-17
1.50045e-17
-1.31516e-17
1.8118e-17
-1.45551e-17
2.0818e-17
-1.59023e-17
2.30931e-17
-1.71742e-17
2.49405e-17
-1.83449e-17
2.63742e-17
-1.93947e-17
2.74168e-17
-2.03031e-17
2.81005e-17
-2.10521e-17
2.84385e-17
-2.16315e-17
2.84866e-17
-2.20056e-17
2.8261e-17
-2.21478e-17
2.78004e-17
-2.2068e-17
2.71522e-17
-2.17655e-17
2.63502e-17
-2.124e-17
2.54333e-17
-2.04955e-17
2.44386e-17
-1.95459e-17
2.33982e-17
-1.84044e-17
2.23435e-17
-1.70879e-17
2.13015e-17
-1.56167e-17
2.02948e-17
-1.4015e-17
1.93333e-17
-1.23038e-17
1.84161e-17
-1.05118e-17
1.75329e-17
-8.67629e-18
1.66629e-17
-6.84349e-18
1.57332e-17
-5.11866e-18
1.46558e-17
-3.51032e-18
1.34423e-17
-2.21732e-18
1.17253e-17
-1.04131e-18
9.4718e-18
-2.3241e-19
6.44404e-18
2.91101e-18
-3.28685e-19
-7.05072e-18
-9.52664e-19
-1.79632e-17
-1.85983e-18
-2.7161e-17
-2.99435e-18
-3.43451e-17
-4.22911e-18
-3.97526e-17
-5.44308e-18
-4.35489e-17
-6.61185e-18
-4.59528e-17
-7.73534e-18
-4.71502e-17
-8.84393e-18
-4.72662e-17
-9.95863e-18
-4.64173e-17
-1.10761e-17
-4.4749e-17
-1.22201e-17
-4.23554e-17
-1.34024e-17
-3.93394e-17
-1.4634e-17
-3.57979e-17
-1.5918e-17
-3.18273e-17
-1.72584e-17
-2.75192e-17
-1.86578e-17
-2.29632e-17
-2.01128e-17
-1.82463e-17
-2.16169e-17
-1.34503e-17
-2.31572e-17
-8.6524e-18
-2.47195e-17
-3.92544e-18
-2.62847e-17
6.61691e-19
-2.78359e-17
5.04338e-18
-2.93506e-17
9.158e-18
-3.08104e-17
1.29506e-17
-3.21909e-17
1.63758e-17
-3.3474e-17
1.93965e-17
-3.46386e-17
2.19872e-17
-3.56685e-17
2.41301e-17
-3.65418e-17
2.58276e-17
-3.72421e-17
2.70901e-17
-3.77558e-17
2.79488e-17
-3.80657e-17
2.84278e-17
-3.81535e-17
2.85481e-17
-3.80078e-17
2.83641e-17
-3.7619e-17
2.79006e-17
-3.69792e-17
2.71912e-17
-3.6083e-17
2.62917e-17
-3.49338e-17
2.52398e-17
-3.35343e-17
2.40791e-17
-3.18963e-17
2.28481e-17
-3.0033e-17
2.15865e-17
-2.7964e-17
2.03281e-17
-2.57093e-17
1.9104e-17
-2.32932e-17
1.79403e-17
-2.07436e-17
1.68533e-17
-1.80918e-17
1.58439e-17
-1.53676e-17
1.49082e-17
-1.26256e-17
1.40224e-17
-9.94317e-18
1.31408e-17
-7.37604e-18
1.22082e-17
-5.06867e-18
1.10672e-17
-3.07917e-18
9.6842e-18
-1.55308e-18
7.89519e-18
-5.50568e-19
5.34655e-18
2.35582e-18
-4.44679e-19
-6.54583e-18
-1.48609e-18
-1.67837e-17
-3.01127e-18
-2.55245e-17
-4.90917e-18
-3.23864e-17
-7.04502e-18
-3.76027e-17
-9.29076e-18
-4.13092e-17
-1.15732e-17
-4.3678e-17
-1.3877e-17
-4.48631e-17
-1.61878e-17
-4.49831e-17
-1.84841e-17
-4.41539e-17
-2.0767e-17
-4.25009e-17
-2.30335e-17
-4.01231e-17
-2.52845e-17
-3.71263e-17
-2.75172e-17
-3.36024e-17
-2.97312e-17
-2.9651e-17
-3.19206e-17
-2.53653e-17
-3.40813e-17
-2.08362e-17
-3.62038e-17
-1.61547e-17
-3.82802e-17
-1.14026e-17
-4.02966e-17
-6.66228e-18
-4.22378e-17
-2.00719e-18
-4.4087e-17
2.48773e-18
-4.58275e-17
6.76174e-18
-4.74435e-17
1.07501e-17
-4.89173e-17
1.44021e-17
-5.02316e-17
1.76707e-17
-5.13678e-17
2.05227e-17
-5.23104e-17
2.29297e-17
-5.30433e-17
2.48757e-17
-5.35525e-17
2.63567e-17
-5.38252e-17
2.73865e-17
-5.38421e-17
2.79892e-17
-5.35867e-17
2.81992e-17
-5.30812e-17
2.80716e-17
-5.23041e-17
2.76209e-17
-5.12443e-17
2.6877e-17
-4.99039e-17
2.58907e-17
-4.82816e-17
2.47115e-17
-4.63807e-17
2.33848e-17
-4.42113e-17
2.19562e-17
-4.17854e-17
2.04712e-17
-3.91212e-17
1.89715e-17
-3.62398e-17
1.74967e-17
-3.31647e-17
1.60817e-17
-2.99222e-17
1.47569e-17
-2.6546e-17
1.354e-17
-2.30683e-17
1.24427e-17
-1.95345e-17
1.1464e-17
-1.60122e-17
1.05911e-17
-1.25715e-17
9.79058e-18
-9.31526e-18
8.98415e-18
-6.3846e-18
8.13313e-18
-3.87394e-18
7.13886e-18
-1.92372e-18
5.74069e-18
-5.81252e-19
3.97272e-18
1.7716e-18
-5.78926e-19
-5.92766e-18
-1.93171e-18
-1.52789e-17
-3.95621e-18
-2.33679e-17
-6.49242e-18
-2.97651e-17
-9.40054e-18
-3.46626e-17
-1.25257e-17
-3.81744e-17
-1.57684e-17
-4.04356e-17
-1.90801e-17
-4.15655e-17
-2.24169e-17
-4.16714e-17
-2.5739e-17
-4.08649e-17
-2.90241e-17
-3.92494e-17
-3.22573e-17
-3.69272e-17
-3.54281e-17
-3.39942e-17
-3.85228e-17
-3.05472e-17
-4.15316e-17
-2.66805e-17
-4.44458e-17
-2.2489e-17
-4.72539e-17
-1.80642e-17
-4.9945e-17
-1.34985e-17
-5.25045e-17
-8.87571e-18
-5.4918e-17
-4.27864e-18
-5.71715e-17
2.13823e-19
-5.92502e-17
4.53042e-18
-6.11375e-17
8.60425e-18
-6.28184e-17
1.23819e-17
-6.42818e-17
1.58165e-17
-6.55148e-17
1.88676e-17
-6.65015e-17
2.14958e-17
-6.72303e-17
2.3669e-17
-6.76897e-17
2.53609e-17
-6.78649e-17
2.65652e-17
-6.77415e-17
2.72975e-17
-6.73119e-17
2.75946e-17
-6.65856e-17
2.75082e-17
-6.55608e-17
2.70834e-17
-6.42283e-17
2.63262e-17
-6.25886e-17
2.52777e-17
-6.06438e-17
2.39888e-17
-5.83966e-17
2.25105e-17
-5.58559e-17
2.08918e-17
-5.30325e-17
1.91833e-17
-4.99426e-17
1.74326e-17
-4.66055e-17
1.56861e-17
-4.30439e-17
1.39877e-17
-3.92826e-17
1.23775e-17
-3.53533e-17
1.08877e-17
-3.12909e-17
9.5455e-18
-2.71365e-17
8.36515e-18
-2.29379e-17
7.35594e-18
-1.87675e-17
6.51457e-18
-1.4721e-17
5.81006e-18
-1.08961e-17
5.21777e-18
-7.41884e-18
4.68215e-18
-4.53698e-18
4.03304e-18
-2.17206e-18
3.39802e-18
-6.52589e-19
2.31239e-18
1.11138e-18
-6.95021e-19
-5.17611e-18
-2.27595e-18
-1.35315e-17
-4.69294e-18
-2.07958e-17
-7.75165e-18
-2.66074e-17
-1.12921e-17
-3.10769e-17
-1.51405e-17
-3.43096e-17
-1.91729e-17
-3.64022e-17
-2.33095e-17
-3.74416e-17
-2.74844e-17
-3.75224e-17
-3.16446e-17
-3.67358e-17
-3.57554e-17
-3.51758e-17
-3.97849e-17
-3.29378e-17
-4.37097e-17
-3.01101e-17
-4.75109e-17
-2.67874e-17
-5.11701e-17
-2.30626e-17
-5.46726e-17
-1.90283e-17
-5.80024e-17
-1.47775e-17
-6.11456e-17
-1.03972e-17
-6.40844e-17
-5.97655e-18
-6.68054e-17
-1.59778e-18
-6.9293e-17
2.65746e-18
-7.15348e-17
6.72024e-18
-7.35132e-17
1.05271e-17
-7.52185e-17
1.40328e-17
-7.66422e-17
1.71992e-17
-7.7778e-17
1.99838e-17
-7.86108e-17
2.23281e-17
-7.91327e-17
2.42025e-17
-7.9335e-17
2.55835e-17
-7.92106e-17
2.64668e-17
-7.87425e-17
2.68604e-17
-7.79296e-17
2.68159e-17
-7.67885e-17
2.64018e-17
-7.53181e-17
2.56491e-17
-7.35205e-17
2.45669e-17
-7.13973e-17
2.31959e-17
-6.89542e-17
2.15903e-17
-6.61977e-17
1.98016e-17
-6.31386e-17
1.78834e-17
-5.97909e-17
1.58887e-17
-5.61723e-17
1.3869e-17
-5.2304e-17
1.18743e-17
-4.82097e-17
9.95303e-18
-4.3918e-17
8.14731e-18
-3.94595e-17
6.49661e-18
-3.48746e-17
5.03224e-18
-3.0204e-17
3.77779e-18
-2.55013e-17
2.74775e-18
-2.08506e-17
1.9497e-18
-1.63341e-17
1.38885e-18
-1.20699e-17
1.00628e-18
-8.25436e-18
7.55842e-19
-4.92393e-18
7.93569e-19
-2.48813e-18
6.41572e-19
-8.01894e-19
5.78141e-19
3.05251e-19
-7.44625e-19
-4.38391e-18
-2.50611e-18
-1.15955e-17
-5.22791e-18
-1.79165e-17
-8.69789e-18
-2.30314e-17
-1.27243e-17
-2.70001e-17
-1.71251e-17
-2.98907e-17
-2.17592e-17
-3.17649e-17
-2.65267e-17
-3.26859e-17
-3.13466e-17
-3.27259e-17
-3.61542e-17
-3.19617e-17
-4.08974e-17
-3.04709e-17
-4.5539e-17
-2.83384e-17
-5.00441e-17
-2.565e-17
-5.43842e-17
-2.24932e-17
-5.85363e-17
-1.89581e-17
-6.24804e-17
-1.51345e-17
-6.61962e-17
-1.11119e-17
-6.96659e-17
-6.97674e-18
-7.28729e-17
-2.81646e-18
-7.58025e-17
1.28581e-18
-7.84418e-17
5.25296e-18
-8.07735e-17
9.01496e-18
-8.27808e-17
1.251e-17
-8.44489e-17
1.56957e-17
-8.57832e-17
1.85455e-17
-8.67946e-17
2.10082e-17
-8.74702e-17
2.30049e-17
-8.78006e-17
2.45205e-17
-8.77751e-17
2.55418e-17
-8.73863e-17
2.60688e-17
-8.66099e-17
2.60885e-17
-8.54604e-17
2.56823e-17
-8.39728e-17
2.49398e-17
-8.21475e-17
2.38555e-17
-7.99798e-17
2.2436e-17
-7.74763e-17
2.07341e-17
-7.46458e-17
1.88062e-17
-7.15012e-17
1.67058e-17
-6.80546e-17
1.44887e-17
-6.43216e-17
1.22104e-17
-6.03214e-17
9.92673e-18
-5.60761e-17
7.69031e-18
-5.16118e-17
5.55136e-18
-4.69559e-17
3.5584e-18
-4.21422e-17
1.75344e-18
-3.72085e-17
1.74502e-19
-3.21999e-17
-1.14844e-18
-2.71716e-17
-2.18796e-18
-2.2197e-17
-2.9221e-18
-1.73864e-17
-3.36331e-18
-1.28577e-17
-3.48544e-18
-8.72049e-18
-3.25939e-18
-5.35571e-18
-2.93788e-18
-2.49189e-18
-2.14891e-18
-6.97333e-19
-1.40542e-18
-4.03349e-19
-7.83906e-19
-3.54381e-18
-2.666e-18
-9.55244e-18
-5.58675e-18
-1.48414e-17
-9.32797e-18
-1.9179e-17
-1.3688e-17
-2.2591e-17
-1.84662e-17
-2.50939e-17
-2.35132e-17
-2.67156e-17
-2.87149e-17
-2.74959e-17
-3.39816e-17
-2.74846e-17
-3.92364e-17
-2.67403e-17
-4.44186e-17
-2.53293e-17
-4.94796e-17
-2.33222e-17
-5.43792e-17
-2.07991e-17
-5.90828e-17
-1.78409e-17
-6.35623e-17
-1.4533e-17
-6.77909e-17
-1.09605e-17
-7.1748e-17
-7.20909e-18
-7.54135e-17
-3.36354e-18
-7.87718e-17
4.91562e-19
-8.18065e-17
4.27657e-18
-8.45036e-17
7.91741e-18
-8.68436e-17
1.13411e-17
-8.88055e-17
1.44816e-17
-9.03743e-17
1.72963e-17
-9.15785e-17
1.9782e-17
-9.24483e-17
2.18928e-17
-9.29678e-17
2.35103e-17
-9.31013e-17
2.46186e-17
-9.28481e-17
2.52465e-17
-9.22046e-17
2.53974e-17
-9.11714e-17
2.50469e-17
-8.97709e-17
2.42923e-17
-8.80198e-17
2.32101e-17
-8.59166e-17
2.17822e-17
-8.34679e-17
2.00243e-17
-8.06865e-17
1.79967e-17
-7.7585e-17
1.5752e-17
-7.41779e-17
1.33495e-17
-7.04803e-17
1.08438e-17
-6.65085e-17
8.29522e-18
-6.22818e-17
5.7608e-18
-5.7824e-17
3.29543e-18
-5.31599e-17
9.5245e-19
-4.83172e-17
-1.21674e-18
-4.33279e-17
-3.16474e-18
-3.82309e-17
-4.84823e-18
-3.30687e-17
-6.2272e-18
-2.78942e-17
-7.269e-18
-2.2794e-17
-7.94342e-18
-1.78504e-17
-8.2015e-18
-1.31739e-17
-8.07739e-18
-9.02621e-18
-7.615e-18
-5.3283e-18
-6.42958e-18
-2.74058e-18
-5.16332e-18
-9.19698e-19
-3.28905e-18
-1.32709e-18
-7.95472e-19
-2.70318e-18
-2.73621e-18
-7.44634e-18
-5.75416e-18
-1.16565e-17
-9.64645e-18
-1.51858e-17
-1.41819e-17
-1.80097e-17
-1.91639e-17
-2.00981e-17
-2.44356e-17
-2.14449e-17
-2.98767e-17
-2.207e-17
-3.53886e-17
-2.19996e-17
-4.08895e-17
-2.12755e-17
-4.63107e-17
-1.99492e-17
-5.15975e-17
-1.80818e-17
-5.67033e-17
-1.57427e-17
-6.15899e-17
-1.30077e-17
-6.6223e-17
-9.95375e-18
-7.05744e-17
-6.66276e-18
-7.46205e-17
-3.21564e-18
-7.83418e-17
3.05611e-19
-8.17204e-17
3.82209e-18
-8.47424e-17
7.25605e-18
-8.7392e-17
1.05342e-17
-8.96552e-17
1.35846e-17
-9.15119e-17
1.63365e-17
-9.29516e-17
1.87401e-17
-9.40114e-17
2.08446e-17
-9.47181e-17
2.259e-17
-9.50503e-17
2.38218e-17
-9.49692e-17
2.45113e-17
-9.44786e-17
2.47401e-17
-9.35978e-17
2.45127e-17
-9.23624e-17
2.38208e-17
-9.07808e-17
2.27272e-17
-8.88333e-17
2.12877e-17
-8.65309e-17
1.95121e-17
-8.38953e-17
1.74301e-17
-8.09436e-17
1.50902e-17
-7.76901e-17
1.25481e-17
-7.41511e-17
9.86141e-18
-7.03421e-17
7.09015e-18
-6.62817e-17
4.29328e-18
-6.19888e-17
1.52909e-18
-5.74861e-17
-1.14464e-18
-5.27982e-17
-3.67223e-18
-4.7951e-17
-5.9992e-18
-4.29737e-17
-8.07362e-18
-3.79023e-17
-9.8459e-18
-3.27785e-17
-1.12714e-17
-2.76543e-17
-1.23035e-17
-2.25918e-17
-1.28965e-17
-1.76944e-17
-1.30406e-17
-1.30979e-17
-1.26588e-17
-8.87646e-18
-1.16249e-17
-5.49935e-18
-1.03005e-17
-2.50923e-18
-8.003e-18
-6.83745e-19
-5.32218e-18
-2.0222e-18
-8.27039e-19
-1.82473e-18
-2.73595e-18
-5.34715e-18
-5.76496e-18
-8.48276e-18
-9.65672e-18
-1.11952e-17
-1.4214e-17
-1.34126e-17
-1.92292e-17
-1.50741e-17
-2.45405e-17
-1.61404e-17
-3.00261e-17
-1.66041e-17
-3.55854e-17
-1.64717e-17
-4.11316e-17
-1.57676e-17
-4.65936e-17
-1.45307e-17
-5.19117e-17
-1.28111e-17
-5.70366e-17
-1.06694e-17
-6.19249e-17
-8.17246e-18
-6.654e-17
-5.39185e-18
-7.08521e-17
-2.40264e-18
-7.48364e-17
7.17421e-19
-7.8471e-17
3.8911e-18
-8.17389e-17
7.04187e-18
-8.4625e-17
1.00966e-17
-8.71185e-17
1.2985e-17
-8.92108e-17
1.56399e-17
-9.09029e-17
1.79925e-17
-9.22041e-17
2.00072e-17
-9.31155e-17
2.17239e-17
-9.3609e-17
2.30588e-17
-9.36875e-17
2.38886e-17
-9.33711e-17
2.42006e-17
-9.26714e-17
2.40547e-17
-9.16008e-17
2.34612e-17
-9.01935e-17
2.24328e-17
-8.84526e-17
2.10108e-17
-8.63714e-17
1.92377e-17
-8.39596e-17
1.71398e-17
-8.12387e-17
1.47535e-17
-7.82256e-17
1.21259e-17
-7.49402e-17
9.31464e-18
-7.13989e-17
6.37533e-18
-6.76197e-17
3.36919e-18
-6.36205e-17
3.54624e-19
-5.94206e-17
-2.60802e-18
-5.5042e-17
-5.46115e-18
-5.05069e-17
-8.14487e-18
-4.58379e-17
-1.06048e-17
-4.10601e-17
-1.27825e-17
-3.62077e-17
-1.46263e-17
-3.13143e-17
-1.60818e-17
-2.64232e-17
-1.71004e-17
-2.16095e-17
-1.76304e-17
-1.69398e-17
-1.759e-17
-1.25165e-17
-1.69751e-17
-8.622e-18
-1.58072e-17
-5.04375e-18
-1.35317e-17
-2.6671e-18
-1.0878e-17
-9.12317e-19
-7.09861e-18
-2.93671e-18
-7.64286e-19
-9.96306e-19
-2.65776e-18
-3.31055e-18
-5.58744e-18
-5.39689e-18
-9.37453e-18
-7.31896e-18
-1.3807e-17
-8.94887e-18
-1.86841e-17
-1.01955e-17
-2.38521e-17
-1.09851e-17
-2.91934e-17
-1.12885e-17
-3.46068e-17
-1.10947e-17
-4.00043e-17
-1.04133e-17
-4.53138e-17
-9.26959e-18
-5.04741e-17
-7.70304e-18
-5.54341e-17
-5.76457e-18
-6.01485e-17
-3.51391e-18
-6.45789e-17
-1.01614e-18
-6.86944e-17
1.65924e-18
-7.24693e-17
4.44008e-18
-7.58827e-17
7.25326e-18
-7.89181e-17
1.00271e-17
-8.15623e-17
1.26921e-17
-8.38066e-17
1.51817e-17
-8.56481e-17
1.74341e-17
-8.71e-17
1.93961e-17
-8.81775e-17
2.10383e-17
-8.88457e-17
2.23513e-17
-8.90748e-17
2.32623e-17
-8.88982e-17
2.37046e-17
-8.83618e-17
2.36719e-17
-8.7477e-17
2.31856e-17
-8.62556e-17
2.22596e-17
-8.47163e-17
2.09171e-17
-8.28665e-17
1.91921e-17
-8.07122e-17
1.71207e-17
-7.82649e-17
1.47376e-17
-7.55467e-17
1.20845e-17
-7.25759e-17
9.21052e-18
-6.93738e-17
6.16942e-18
-6.59561e-17
3.01951e-18
-6.23441e-17
-1.80575e-19
-5.85526e-17
-3.37016e-18
-5.46034e-17
-6.49194e-18
-5.05125e-17
-9.48406e-18
-4.63033e-17
-1.22896e-17
-4.19899e-17
-1.48486e-17
-3.75974e-17
-1.71045e-17
-3.31489e-17
-1.8997e-17
-2.86788e-17
-2.04712e-17
-2.42186e-17
-2.14637e-17
-1.98125e-17
-2.19142e-17
-1.55503e-17
-2.17938e-17
-1.15556e-17
-2.09636e-17
-7.82764e-18
-1.92237e-17
-4.93424e-18
-1.7013e-17
-2.19059e-18
-1.33671e-17
-5.55133e-19
-8.94451e-18
-3.50431e-18
-7.50155e-19
-2.10681e-19
-2.50165e-18
-1.37477e-18
-5.26909e-18
-2.51114e-18
-8.81381e-18
-3.69981e-18
-1.29725e-17
-4.76747e-18
-1.75537e-17
-5.61906e-18
-2.24092e-17
-6.14834e-18
-2.74272e-17
-6.30085e-18
-3.25112e-17
-6.05016e-18
-3.75761e-17
-5.39344e-18
-4.255e-17
-4.34431e-18
-4.73733e-17
-2.93165e-18
-5.19935e-17
-1.19901e-18
-5.63653e-17
8.03367e-19
-6.04506e-17
3.01489e-18
-6.42171e-17
5.37475e-18
-6.76406e-17
7.81324e-18
-7.07022e-17
1.02657e-17
-7.3386e-17
1.26626e-17
-7.5682e-17
1.49426e-17
-7.75845e-17
1.70405e-17
-7.90967e-17
1.89045e-17
-8.02244e-17
2.04823e-17
-8.09711e-17
2.17466e-17
-8.13169e-17
2.26643e-17
-8.12665e-17
2.31908e-17
-8.08542e-17
2.32831e-17
-8.01138e-17
2.29351e-17
-7.90549e-17
2.21383e-17
-7.76953e-17
2.092e-17
-7.60498e-17
1.92977e-17
-7.41361e-17
1.73117e-17
-7.19652e-17
1.49878e-17
-6.95556e-17
1.2373e-17
-6.69236e-17
9.50162e-18
-6.40929e-17
6.43352e-18
-6.10801e-17
3.2128e-18
-5.79084e-17
-9.30735e-20
-5.45926e-17
-3.43544e-18
-5.11525e-17
-6.74756e-18
-4.7601e-17
-9.97884e-18
-4.39594e-17
-1.30626e-17
-4.02382e-17
-1.59463e-17
-3.64552e-17
-1.85655e-17
-3.26218e-17
-2.08665e-17
-2.87623e-17
-2.2782e-17
-2.48932e-17
-2.4253e-17
-2.10414e-17
-2.5215e-17
-1.72561e-17
-2.56161e-17
-1.3576e-17
-2.53333e-17
-1.00629e-17
-2.43336e-17
-6.99454e-18
-2.26233e-17
-4.04713e-18
-1.94769e-17
-2.24172e-18
-1.57094e-17
-8.5006e-19
-1.03538e-17
-4.35549e-18
-6.54685e-19
5.07338e-19
-2.28466e-18
3.4846e-19
-4.77811e-18
9.50923e-20
-7.98446e-18
-4.33371e-19
-1.17434e-17
-9.97408e-19
-1.58817e-17
-1.49378e-18
-2.02645e-17
-1.78502e-18
-2.47921e-17
-1.79884e-18
-2.93767e-17
-1.49668e-18
-3.39383e-17
-8.66932e-19
-3.84076e-17
8.84303e-20
-4.27273e-17
1.3466e-18
-4.68455e-17
2.87763e-18
-5.0718e-17
4.63299e-18
-5.43069e-17
6.56605e-18
-5.7583e-17
8.61162e-18
-6.05226e-17
1.07174e-17
-6.31074e-17
1.2814e-17
-6.53243e-17
1.48491e-17
-6.71664e-17
1.67523e-17
-6.86304e-17
1.84792e-17
-6.97219e-17
1.99672e-17
-7.04456e-17
2.11866e-17
-7.08097e-17
2.20879e-17
-7.08092e-17
2.26539e-17
-7.04618e-17
2.28332e-17
-6.97893e-17
2.26164e-17
-6.8821e-17
2.19714e-17
-6.75787e-17
2.0916e-17
-6.60884e-17
1.94457e-17
-6.43654e-17
1.76038e-17
-6.2434e-17
1.53997e-17
-6.03027e-17
1.28903e-17
-5.79973e-17
1.00928e-17
-5.55301e-17
7.07374e-18
-5.29291e-17
3.86265e-18
-5.02078e-17
5.34925e-19
-4.73926e-17
-2.8737e-18
-4.44945e-17
-6.28756e-18
-4.15346e-17
-9.66932e-18
-3.85229e-17
-1.29434e-17
-3.54769e-17
-1.60688e-17
-3.24019e-17
-1.89714e-17
-2.93099e-17
-2.161e-17
-2.62037e-17
-2.39103e-17
-2.30993e-17
-2.58228e-17
-2.00058e-17
-2.72662e-17
-1.69447e-17
-2.81858e-17
-1.39168e-17
-2.85064e-17
-1.09868e-17
-2.81998e-17
-8.23299e-18
-2.70609e-17
-5.58543e-18
-2.48323e-17
-3.64999e-18
-2.20477e-17
-1.5356e-18
-1.74849e-17
-3.58933e-19
-1.17243e-17
-4.7256e-18
-5.85099e-19
1.10764e-18
-1.99113e-18
1.85721e-18
-4.15139e-18
2.34506e-18
-6.90679e-18
2.35452e-18
-1.01387e-17
2.21779e-18
-1.37003e-17
2.03681e-18
-1.74712e-17
1.95107e-18
-2.13623e-17
2.05225e-18
-2.52974e-17
2.39138e-18
-2.92022e-17
2.98929e-18
-3.30156e-17
3.84801e-18
-3.66797e-17
4.95857e-18
-4.01517e-17
6.2914e-18
-4.33827e-17
7.81044e-18
-4.63436e-17
9.46797e-18
-4.89969e-17
1.12157e-17
-5.13333e-17
1.2998e-17
-5.3325e-17
1.47614e-17
-5.49742e-17
1.64455e-17
-5.62602e-17
1.8002e-17
-5.7203e-17
1.93743e-17
-5.77879e-17
2.05248e-17
-5.80482e-17
2.14053e-17
-5.7967e-17
2.19897e-17
-5.75832e-17
2.22401e-17
-5.68871e-17
2.21365e-17
-5.59351e-17
2.16491e-17
-5.47205e-17
2.07738e-17
-5.33087e-17
1.95014e-17
-5.16889e-17
1.78544e-17
-4.99253e-17
1.58444e-17
-4.79985e-17
1.35093e-17
-4.5969e-17
1.08727e-17
-4.38132e-17
7.98012e-18
-4.15929e-17
4.8731e-18
-3.92878e-17
1.60703e-18
-3.69603e-17
-1.76569e-18
-3.45898e-17
-5.1899e-18
-3.22307e-17
-8.61328e-18
-2.98588e-17
-1.19826e-17
-2.7522e-17
-1.52407e-17
-2.51946e-17
-1.83329e-17
-2.29154e-17
-2.1203e-17
-2.06523e-17
-2.37966e-17
-1.84346e-17
-2.6056e-17
-1.62345e-17
-2.7924e-17
-1.40773e-17
-2.93262e-17
-1.19422e-17
-3.01888e-17
-9.87078e-18
-3.04729e-17
-7.83939e-18
-3.00317e-17
-5.86943e-18
-2.88012e-17
-4.21258e-18
-2.68507e-17
-2.36198e-18
-2.32318e-17
-1.46549e-18
-1.88734e-17
-6.45532e-19
-1.24956e-17
-5.36778e-18
-4.67721e-19
1.60046e-18
-1.60718e-18
3.08715e-18
-3.35333e-18
4.11587e-18
-5.58021e-18
4.57455e-18
-8.18427e-18
4.76014e-18
-1.1059e-17
4.81894e-18
-1.40961e-17
4.88976e-18
-1.72283e-17
5.07416e-18
-2.03815e-17
5.43065e-18
-2.35038e-17
5.98587e-18
-2.65253e-17
6.74793e-18
-2.94134e-17
7.70931e-18
-3.21013e-17
8.85066e-18
-3.45765e-17
1.01419e-17
-3.6777e-17
1.15428e-17
-3.87139e-17
1.3006e-17
-4.03236e-17
1.4486e-17
-4.16399e-17
1.59337e-17
-4.26039e-17
1.73003e-17
-4.32728e-17
1.85345e-17
-4.35864e-17
1.95941e-17
-4.36231e-17
2.04369e-17
-4.3324e-17
2.10298e-17
-4.2782e-17
2.13413e-17
-4.19364e-17
2.13449e-17
-4.08948e-17
2.10166e-17
-3.9596e-17
2.03378e-17
-3.81653e-17
1.92963e-17
-3.65374e-17
1.78953e-17
-3.48428e-17
1.61457e-17
-3.30095e-17
1.40662e-17
-3.11627e-17
1.16816e-17
-2.92232e-17
9.01875e-18
-2.73126e-17
6.11647e-18
-2.53499e-17
3.01719e-18
-2.34558e-17
-2.20927e-19
-2.15529e-17
-3.54614e-18
-1.97587e-17
-6.90054e-18
-1.79906e-17
-1.02451e-17
-1.63516e-17
-1.35223e-17
-1.47582e-17
-1.66868e-17
-1.33017e-17
-1.96761e-17
-1.18987e-17
-2.24432e-17
-1.06227e-17
-2.49281e-17
-9.39888e-18
-2.70922e-17
-8.28717e-18
-2.88712e-17
-7.19845e-18
-3.02161e-17
-6.14498e-18
-3.10511e-17
-5.07005e-18
-3.129e-17
-4.08841e-18
-3.08517e-17
-3.21372e-18
-2.96269e-17
-2.20211e-18
-2.72196e-17
-1.66928e-18
-2.42997e-17
-5.77008e-19
-1.94801e-17
-1.80901e-21
-1.3134e-17
-5.37215e-18
-3.44661e-19
1.96948e-18
-1.19273e-18
3.9014e-18
-2.42657e-18
5.32884e-18
-4.05115e-18
6.09542e-18