/*--------------------------------*- C++ -*----------------------------------*\
| =========                 |                                                 |
| \\      /  F ield         | OpenFOAM: The Open Source CFD Toolbox           |
|  \\    /   O peration     | Version:  5.0                                   |
|   \\  /    A nd           | Web:      www.OpenFOAM.org                      |
|    \\/     M anipulation  |                                                 |
\*---------------------------------------------------------------------------*/
FoamFile
{
    version     2.0;
    format      ascii;
    class       volScalarField;
    location    "272";
    object      p;
}
// * * * * * * * * * * * * * * * * * * * * * * * * * * * * * * * * * * * * * //

dimensions      [0 2 -2 0 0 0 0];

internalField   nonuniform List<scalar> 
1568
(
4.11347e-15
1.17641e-14
1.85803e-14
2.05865e-14
2.34423e-14
2.67327e-14
2.83429e-14
3.01174e-14
3.19211e-14
3.34434e-14
3.48703e-14
3.63166e-14
3.77524e-14
3.91387e-14
4.05226e-14
4.19364e-14
4.33551e-14
4.48074e-14
4.62754e-14
4.77944e-14
4.93247e-14
5.09087e-14
5.24359e-14
5.35908e-14
5.44317e-14
5.55994e-14
5.74648e-14
6.02359e-14
6.32827e-14
6.6015e-14
6.78357e-14
6.89973e-14
6.98168e-14
7.09954e-14
7.25075e-14
7.41096e-14
7.5596e-14
7.71469e-14
7.8604e-14
8.00619e-14
8.1461e-14
8.28845e-14
8.42352e-14
8.56328e-14
8.70092e-14
8.84379e-14
8.98869e-14
9.14432e-14
9.3087e-14
9.48775e-14
9.69075e-14
9.93154e-14
1.02124e-13
1.05172e-13
1.10506e-13
1.1612e-13
9.33473e-15
1.61864e-16
3.50255e-14
2.54243e-14
1.7511e-14
3.11924e-14
3.05906e-14
3.05644e-14
3.38139e-14
3.5607e-14
3.65504e-14
3.78886e-14
3.94018e-14
4.06504e-14
4.20838e-14
4.3503e-14
4.48281e-14
4.62767e-14
4.76918e-14
4.91565e-14
5.05231e-14
5.21036e-14
5.35355e-14
5.52805e-14
5.67716e-14
5.8567e-14
5.99842e-14
6.14092e-14
6.192e-14
6.37626e-14
6.51854e-14
6.68912e-14
6.7973e-14
6.99011e-14
7.12016e-14
7.30619e-14
7.41039e-14
7.58686e-14
7.70134e-14
7.84658e-14
7.97829e-14
8.14978e-14
8.2646e-14
8.40449e-14
8.52656e-14
8.68174e-14
8.81908e-14
8.98177e-14
9.13458e-14
9.34547e-14
9.58384e-14
9.7873e-14
1.01241e-13
1.01611e-13
1.10546e-13
1.13362e-13
1.49738e-14
2.47783e-14
7.87236e-15
2.16055e-14
2.66675e-14
3.02697e-14
2.92015e-14
3.22801e-14
3.43663e-14
3.42269e-14
3.68243e-14
3.89317e-14
3.96082e-14
4.09372e-14
4.2437e-14
4.34093e-14
4.47707e-14
4.60922e-14
4.75061e-14
4.87386e-14
5.01696e-14
5.16144e-14
5.33394e-14
5.47403e-14
5.63762e-14
5.74968e-14
5.9066e-14
6.07315e-14
6.26925e-14
6.4033e-14
6.56031e-14
6.72806e-14
6.96649e-14
7.10568e-14
7.24261e-14
7.35702e-14
7.52823e-14
7.62469e-14
7.76873e-14
7.90184e-14
7.99283e-14
8.05334e-14
8.21587e-14
8.33816e-14
8.48897e-14
8.62545e-14
8.77339e-14
8.93181e-14
9.10371e-14
9.27604e-14
9.43517e-14
9.49329e-14
1.02563e-13
1.02615e-13
1.05724e-13
1.0965e-13
1.72991e-14
2.40244e-14
3.02841e-14
2.62912e-14
3.2791e-14
3.4371e-14
3.33184e-14
3.66135e-14
3.95395e-14
4.04946e-14
4.13315e-14
4.24119e-14
4.38374e-14
4.54102e-14
4.632e-14
4.76993e-14
4.89592e-14
4.99958e-14
5.09386e-14
5.23529e-14
5.34199e-14
5.44893e-14
5.5367e-14
5.65011e-14
5.7421e-14
5.86737e-14
5.98307e-14
6.12697e-14
6.25473e-14
6.39925e-14
6.50613e-14
6.5663e-14
6.61653e-14
6.70303e-14
6.82994e-14
6.94522e-14
7.06253e-14
7.19368e-14
7.29514e-14
7.43131e-14
7.58209e-14
7.74574e-14
7.86083e-14
7.97753e-14
8.09907e-14
8.23027e-14
8.34506e-14
8.51912e-14
8.69538e-14
8.82434e-14
9.15054e-14
9.40541e-14
9.49267e-14
9.53404e-14
1.04923e-13
1.06386e-13
2.04935e-14
1.81535e-14
2.74262e-14
2.82459e-14
3.25162e-14
3.32768e-14
3.47994e-14
3.75567e-14
3.86824e-14
3.99682e-14
4.13989e-14
4.27847e-14
4.39677e-14
4.49616e-14
4.60078e-14
4.72433e-14
4.83674e-14
4.95608e-14
5.07331e-14
5.18702e-14
5.29563e-14
5.40934e-14
5.5269e-14
5.64973e-14
5.75866e-14
5.88104e-14
5.9996e-14
6.10752e-14
6.21859e-14
6.34186e-14
6.47226e-14
6.60222e-14
6.72078e-14
6.83816e-14
6.97162e-14
7.08552e-14
7.18126e-14
7.29621e-14
7.40529e-14
7.50552e-14
7.6021e-14
7.70437e-14
7.80522e-14
7.92191e-14
8.04133e-14
8.17239e-14
8.31775e-14
8.45071e-14
8.57173e-14
8.82703e-14
9.00842e-14
8.89306e-14
9.5432e-14
9.90706e-14
9.88531e-14
1.02363e-13
2.5205e-14
2.83915e-14
3.15017e-14
3.37629e-14
3.41097e-14
3.48065e-14
3.81605e-14
4.02009e-14
4.03723e-14
4.16737e-14
4.33311e-14
4.45698e-14
4.55684e-14
4.67251e-14
4.79266e-14
4.88408e-14
4.97206e-14
5.07108e-14
5.17551e-14
5.2653e-14
5.36551e-14
5.47747e-14
5.5847e-14
5.68762e-14
5.79306e-14
5.89185e-14
6.00247e-14
6.11809e-14
6.22907e-14
6.33832e-14
6.44245e-14
6.5508e-14
6.67219e-14
6.77882e-14
6.86958e-14
6.96754e-14
7.06956e-14
7.17154e-14
7.27495e-14
7.37758e-14
7.47464e-14
7.57622e-14
7.68669e-14
7.78759e-14
7.90377e-14
8.0211e-14
8.12271e-14
8.28371e-14
8.44656e-14
8.48146e-14
8.74037e-14
9.08363e-14
9.09708e-14
8.94412e-14
9.75065e-14
9.87675e-14
2.91065e-14
3.22248e-14
3.4048e-14
3.52954e-14
3.7256e-14
3.94088e-14
4.1314e-14
4.23509e-14
4.35134e-14
4.49168e-14
4.61142e-14
4.69981e-14
4.79055e-14
4.89096e-14
4.98436e-14
5.07643e-14
5.17065e-14
5.25748e-14
5.34323e-14
5.43547e-14
5.52599e-14
5.60714e-14
5.68908e-14
5.77536e-14
5.86589e-14
5.95447e-14
6.04537e-14
6.13467e-14
6.22712e-14
6.31793e-14
6.3953e-14
6.47015e-14
6.55515e-14
6.63804e-14
6.71787e-14
6.80445e-14
6.90146e-14
6.98702e-14
7.07201e-14
7.16482e-14
7.2629e-14
7.35903e-14
7.45382e-14
7.5492e-14
7.65413e-14
7.75802e-14
7.86451e-14
7.99544e-14
8.10223e-14
8.27212e-14
8.49415e-14
8.3983e-14
8.83293e-14
9.20973e-14
9.2361e-14
9.44778e-14
3.29672e-14
3.43094e-14
3.63296e-14
3.80253e-14
4.06882e-14
4.21485e-14
4.29594e-14
4.39181e-14
4.54094e-14
4.64391e-14
4.74408e-14
4.83783e-14
4.93125e-14
5.01763e-14
5.09695e-14
5.17987e-14
5.26319e-14
5.34199e-14
5.42036e-14
5.49981e-14
5.57617e-14
5.65488e-14
5.73259e-14
5.8119e-14
5.89005e-14
5.97152e-14
6.0495e-14
6.12861e-14
6.21146e-14
6.29235e-14
6.38037e-14
6.46692e-14
6.53881e-14
6.61584e-14
6.70331e-14
6.78304e-14
6.85611e-14
6.93284e-14
7.00798e-14
7.08529e-14
7.16156e-14
7.23658e-14
7.31523e-14
7.40045e-14
7.49019e-14
7.58158e-14
7.66852e-14
7.79716e-14
7.92591e-14
7.9907e-14
8.16759e-14
8.37495e-14
8.48779e-14
8.34965e-14
8.9228e-14
9.04764e-14
3.72241e-14
3.85818e-14
4.10886e-14
4.23296e-14
4.38926e-14
4.42621e-14
4.55273e-14
4.68225e-14
4.77954e-14
4.87274e-14
4.95829e-14
5.02395e-14
5.10984e-14
5.1922e-14
5.26102e-14
5.32853e-14
5.39433e-14
5.46301e-14
5.53116e-14
5.59381e-14
5.65898e-14
5.73403e-14
5.80053e-14
5.86645e-14
5.93429e-14
6.00187e-14
6.06935e-14
6.13871e-14
6.20745e-14
6.27334e-14
6.34511e-14
6.41644e-14
6.48627e-14
6.55383e-14
6.62146e-14
6.68601e-14
6.74982e-14
6.8155e-14
6.88322e-14
6.94982e-14
7.0162e-14
7.08683e-14
7.15932e-14
7.22923e-14
7.30568e-14
7.39113e-14
7.47748e-14
7.57229e-14
7.64854e-14
7.76814e-14
7.95537e-14
7.88535e-14
8.16786e-14
8.38945e-14
8.45695e-14
8.60903e-14
4.16082e-14
4.305e-14
4.46153e-14
4.54797e-14
4.68664e-14
4.72263e-14
4.87852e-14
4.9839e-14
5.02481e-14
5.10843e-14
5.19275e-14
5.25371e-14
5.3173e-14
5.37964e-14
5.43353e-14
5.49476e-14
5.55099e-14
5.60438e-14
5.65722e-14
5.71878e-14
5.76977e-14
5.81855e-14
5.87278e-14
5.92925e-14
5.98124e-14
6.03523e-14
6.09254e-14
6.14985e-14
6.20351e-14
6.25935e-14
6.30917e-14
6.35973e-14
6.41303e-14
6.46823e-14
6.52004e-14
6.57059e-14
6.62694e-14
6.68366e-14
6.73793e-14
6.79169e-14
6.84813e-14
6.90777e-14
6.96507e-14
7.02588e-14
7.09389e-14
7.16106e-14
7.22081e-14
7.31304e-14
7.4013e-14
7.44928e-14
7.59102e-14
7.67143e-14
7.84505e-14
7.77167e-14
8.08789e-14
8.18398e-14
4.59675e-14
4.70453e-14
4.78723e-14
4.89358e-14
5.02303e-14
5.04478e-14
5.15685e-14
5.22852e-14
5.27434e-14
5.33956e-14
5.39271e-14
5.45369e-14
5.50346e-14
5.54665e-14
5.59315e-14
5.64091e-14
5.68777e-14
5.73048e-14
5.77238e-14
5.81286e-14
5.85845e-14
5.89691e-14
5.93952e-14
5.97756e-14
6.01864e-14
6.06077e-14
6.10956e-14
6.15468e-14
6.19986e-14
6.24323e-14
6.2816e-14
6.32296e-14
6.3656e-14
6.4068e-14
6.44884e-14
6.49094e-14
6.53285e-14
6.5741e-14
6.61579e-14
6.65873e-14
6.70259e-14
6.74609e-14
6.79039e-14
6.83792e-14
6.89036e-14
6.93898e-14
6.99385e-14
7.0712e-14
7.11327e-14
7.16831e-14
7.34148e-14
7.29497e-14
7.40101e-14
7.5401e-14
7.66286e-14
7.73899e-14
5.04391e-14
5.13212e-14
5.1819e-14
5.25778e-14
5.36421e-14
5.36148e-14
5.44196e-14
5.49106e-14
5.52203e-14
5.57584e-14
5.61936e-14
5.65063e-14
5.68106e-14
5.72261e-14
5.76496e-14
5.78969e-14
5.81787e-14
5.85106e-14
5.8862e-14
5.91053e-14
5.94371e-14
5.97614e-14
6.00973e-14
6.04246e-14
6.08092e-14
6.10985e-14
6.13164e-14
6.14884e-14
6.17527e-14
6.20901e-14
6.24727e-14
6.28228e-14
6.31155e-14
6.34012e-14
6.37004e-14
6.40455e-14
6.43298e-14
6.46148e-14
6.49227e-14
6.52309e-14
6.55289e-14
6.58715e-14
6.62078e-14
6.65443e-14
6.69323e-14
6.72793e-14
6.76178e-14
6.8149e-14
6.86663e-14
6.8989e-14
6.96306e-14
6.96594e-14
7.16307e-14
7.12115e-14
7.20021e-14
7.2926e-14
5.49177e-14
5.55536e-14
5.58559e-14
5.62798e-14
5.6952e-14
5.67553e-14
5.7391e-14
5.77361e-14
5.78218e-14
5.81177e-14
5.86237e-14
5.88047e-14
5.88107e-14
5.91143e-14
5.93177e-14
5.94731e-14
5.96657e-14
5.98664e-14
6.00527e-14
6.0232e-14
6.0379e-14
6.05735e-14
6.06965e-14
6.08062e-14
6.09386e-14
6.11557e-14
6.14259e-14
6.17575e-14
6.19969e-14
6.20931e-14
6.21977e-14
6.23569e-14
6.25312e-14
6.27351e-14
6.29102e-14
6.30323e-14
6.32309e-14
6.34255e-14
6.36006e-14
6.37756e-14
6.39538e-14
6.41541e-14
6.43405e-14
6.45355e-14
6.46877e-14
6.49316e-14
6.52001e-14
6.56868e-14
6.57495e-14
6.56136e-14
6.72443e-14
6.68638e-14
6.6457e-14
6.6783e-14
6.8536e-14
6.84938e-14
5.94471e-14
5.9771e-14
5.96596e-14
5.99504e-14
6.03354e-14
5.99525e-14
6.03622e-14
6.0532e-14
6.05022e-14
6.06092e-14
6.0763e-14
6.07805e-14
6.08217e-14
6.09793e-14
6.09443e-14
6.10163e-14
6.11217e-14
6.11537e-14
6.11744e-14
6.12627e-14
6.1328e-14
6.13877e-14
6.14636e-14
6.16044e-14
6.1657e-14
6.16978e-14
6.16522e-14
6.16159e-14
6.16519e-14
6.17644e-14
6.18486e-14
6.19293e-14
6.19623e-14
6.20069e-14
6.21015e-14
6.21208e-14
6.22027e-14
6.22476e-14
6.2284e-14
6.23595e-14
6.24172e-14
6.24512e-14
6.24874e-14
6.25813e-14
6.26402e-14
6.2733e-14
6.27358e-14
6.28473e-14
6.30463e-14
6.32968e-14
6.32681e-14
6.20923e-14
6.48149e-14
6.4202e-14
6.33253e-14
6.38874e-14
6.39532e-14
6.40124e-14
6.35836e-14
6.35909e-14
6.37938e-14
6.31616e-14
6.33425e-14
6.32926e-14
6.30309e-14
6.30404e-14
6.29011e-14
6.28135e-14
6.28165e-14
6.2664e-14
6.26306e-14
6.25842e-14
6.25028e-14
6.24113e-14
6.23679e-14
6.23219e-14
6.22461e-14
6.21509e-14
6.21289e-14
6.21198e-14
6.20646e-14
6.19537e-14
6.1858e-14
6.16918e-14
6.1592e-14
6.15883e-14
6.15642e-14
6.14881e-14
6.14277e-14
6.13275e-14
6.12691e-14
6.12396e-14
6.11528e-14
6.1062e-14
6.10151e-14
6.09333e-14
6.08652e-14
6.08048e-14
6.07901e-14
6.06401e-14
6.05996e-14
6.05101e-14
6.0386e-14
6.05177e-14
6.01971e-14
5.9596e-14
6.07218e-14
6.03913e-14
5.92603e-14
5.77854e-14
6.02595e-14
5.94727e-14
6.85176e-14
6.85901e-14
6.74669e-14
6.71926e-14
6.72651e-14
6.63498e-14
6.63351e-14
6.60759e-14
6.563e-14
6.55131e-14
6.51218e-14
6.48424e-14
6.47981e-14
6.45314e-14
6.43483e-14
6.41467e-14
6.39348e-14
6.37715e-14
6.35834e-14
6.33553e-14
6.31576e-14
6.30176e-14
6.27535e-14
6.24604e-14
6.22177e-14
6.20496e-14
6.1999e-14
6.19675e-14
6.18149e-14
6.15569e-14
6.12519e-14
6.10409e-14
6.08827e-14
6.07186e-14
6.04746e-14
6.03007e-14
6.00753e-14
5.99174e-14
5.97316e-14
5.95157e-14
5.93126e-14
5.91361e-14
5.88896e-14
5.86332e-14
5.85622e-14
5.83553e-14
5.79081e-14
5.76338e-14
5.75299e-14
5.7563e-14
5.6725e-14
5.49328e-14
5.79867e-14
5.6692e-14
5.48183e-14
5.48176e-14
7.29761e-14
7.25114e-14
7.12952e-14
7.09052e-14
7.06777e-14
6.9454e-14
6.92864e-14
6.8844e-14
6.82115e-14
6.78856e-14
6.74731e-14
6.70568e-14
6.67208e-14
6.63491e-14
6.59916e-14
6.56447e-14
6.53383e-14
6.50173e-14
6.4698e-14
6.43808e-14
6.40797e-14
6.37746e-14
6.349e-14
6.32552e-14
6.29908e-14
6.26476e-14
6.2224e-14
6.1788e-14
6.14421e-14
6.11674e-14
6.09056e-14
6.06387e-14
6.03037e-14
5.9991e-14
5.96806e-14
5.93861e-14
5.90655e-14
5.8755e-14
5.8419e-14
5.81124e-14
5.77843e-14
5.74735e-14
5.71019e-14
5.67246e-14
5.63847e-14
5.59902e-14
5.54988e-14
5.53977e-14
5.4646e-14
5.35012e-14
5.44842e-14
5.39509e-14
5.14085e-14
4.96603e-14
5.19826e-14
5.04715e-14
7.75055e-14
7.71248e-14
7.52437e-14
7.4466e-14
7.41036e-14
7.26231e-14
7.22375e-14
7.16089e-14
7.07767e-14
7.02623e-14
6.97319e-14
6.91645e-14
6.86608e-14
6.81676e-14
6.76982e-14
6.725e-14
6.68071e-14
6.63373e-14
6.59109e-14
6.54762e-14
6.50639e-14
6.45726e-14
6.41475e-14
6.36595e-14
6.32368e-14
6.27764e-14
6.24249e-14
6.19623e-14
6.15774e-14
6.10797e-14
6.06758e-14
6.0164e-14
5.97631e-14
5.92683e-14
5.89044e-14
5.84025e-14
5.80196e-14
5.75249e-14
5.71408e-14
5.66368e-14
5.62209e-14
5.57041e-14
5.5291e-14
5.47283e-14
5.42719e-14
5.37697e-14
5.31795e-14
5.24272e-14
5.20729e-14
5.17855e-14
5.02789e-14
4.79279e-14
5.11227e-14
4.94556e-14
4.59714e-14
4.58263e-14
8.19002e-14
8.09197e-14
7.9077e-14
7.79237e-14
7.74239e-14
7.57215e-14
7.51071e-14
7.43046e-14
7.32791e-14
7.26375e-14
7.19259e-14
7.12313e-14
7.05418e-14
6.99897e-14
6.93425e-14
6.88276e-14
6.81703e-14
6.76999e-14
6.70458e-14
6.65876e-14
6.59097e-14
6.54794e-14
6.48079e-14
6.43544e-14
6.36544e-14
6.32244e-14
6.25249e-14
6.21139e-14
6.14025e-14
6.09718e-14
6.02276e-14
5.98012e-14
5.91118e-14
5.86969e-14
5.79847e-14
5.7571e-14
5.68836e-14
5.64602e-14
5.57689e-14
5.53239e-14
5.46247e-14
5.41718e-14
5.34582e-14
5.28901e-14
5.21973e-14
5.15426e-14
5.06843e-14
5.0408e-14
4.91835e-14
4.73758e-14
4.85268e-14
4.76046e-14
4.38017e-14
4.14511e-14
4.36568e-14
4.16135e-14
8.63046e-14
8.52721e-14
8.29025e-14
8.11956e-14
8.05656e-14
7.85423e-14
7.77644e-14
7.67929e-14
7.5627e-14
7.47314e-14
7.39371e-14
7.30558e-14
7.2326e-14
7.15526e-14
7.0853e-14
7.00722e-14
6.94427e-14
6.87203e-14
6.81038e-14
6.73693e-14
6.67549e-14
6.6062e-14
6.54072e-14
6.47215e-14
6.40752e-14
6.33902e-14
6.27162e-14
6.20404e-14
6.13428e-14
6.06763e-14
6.00007e-14
5.93797e-14
5.86898e-14
5.80501e-14
5.73385e-14
5.67145e-14
5.59834e-14
5.53748e-14
5.4661e-14
5.4034e-14
5.32825e-14
5.26588e-14
5.18721e-14
5.1185e-14
5.0373e-14
4.96965e-14
4.87365e-14
4.76278e-14
4.67101e-14
4.68819e-14
4.42077e-14
4.0431e-14
4.48685e-14
4.31883e-14
3.75058e-14
3.70095e-14
9.05986e-14
8.91115e-14
8.65811e-14
8.46398e-14
8.40804e-14
8.16442e-14
8.05798e-14
7.94462e-14
7.81552e-14
7.70756e-14
7.62143e-14
7.50918e-14
7.43247e-14
7.3273e-14
7.27174e-14
7.1652e-14
7.1157e-14
6.99701e-14
6.95931e-14
6.83778e-14
6.80712e-14
6.67367e-14
6.64987e-14
6.51281e-14
6.4936e-14
6.34682e-14
6.3332e-14
6.17643e-14
6.16749e-14
6.01165e-14
6.00865e-14
5.84978e-14
5.84936e-14
5.69324e-14
5.69697e-14
5.53304e-14
5.53168e-14
5.37428e-14
5.36993e-14
5.21195e-14
5.20145e-14
5.0459e-14
5.02403e-14
4.88031e-14
4.85605e-14
4.70391e-14
4.63143e-14
4.52726e-14
4.46113e-14
4.12801e-14
4.19671e-14
4.269e-14
3.71597e-14
3.22932e-14
3.60595e-14
3.30275e-14
9.47678e-14
9.26824e-14
9.04976e-14
8.71987e-14
8.67316e-14
8.45809e-14
8.30613e-14
8.19173e-14
8.04178e-14
7.94246e-14
7.81062e-14
7.72527e-14
7.60752e-14
7.53656e-14
7.40394e-14
7.34011e-14
7.21474e-14
7.16867e-14
7.02855e-14
6.98819e-14
6.84199e-14
6.81069e-14
6.66204e-14
6.62766e-14
6.47475e-14
6.4428e-14
6.28655e-14
6.2564e-14
6.09578e-14
6.06565e-14
5.89891e-14
5.86469e-14
5.70001e-14
5.66448e-14
5.50854e-14
5.48957e-14
5.34657e-14
5.30885e-14
5.16759e-14
5.13504e-14
5.00276e-14
4.96485e-14
4.82865e-14
4.76172e-14
4.61625e-14
4.53941e-14
4.42332e-14
4.31865e-14
4.12785e-14
4.12305e-14
3.97121e-14
3.33224e-14
3.78393e-14
3.67252e-14
3.00829e-14
2.85821e-14
9.88035e-14
9.64308e-14
9.34754e-14
9.04981e-14
8.92278e-14
8.67513e-14
8.52218e-14
8.38481e-14
8.21004e-14
8.09841e-14
7.96195e-14
7.86286e-14
7.71314e-14
7.64192e-14
7.49423e-14
7.4455e-14
7.27835e-14
7.24846e-14
7.07229e-14
7.05909e-14
6.86397e-14
6.86969e-14
6.65141e-14
6.67717e-14
6.44513e-14
6.48598e-14
6.23997e-14
6.29374e-14
6.03098e-14
6.09479e-14
5.82065e-14
5.8952e-14
5.6218e-14
5.70518e-14
5.42314e-14
5.50861e-14
5.21679e-14
5.30962e-14
5.04383e-14
5.1194e-14
4.84238e-14
4.91536e-14
4.65438e-14
4.69554e-14
4.45928e-14
4.48426e-14
4.20677e-14
4.18799e-14
3.98561e-14
3.8375e-14
3.55585e-14
3.69598e-14
3.32623e-14
2.64653e-14
2.79725e-14
2.48233e-14
1.02811e-13
1.00993e-13
9.6468e-14
9.48309e-14
9.26728e-14
8.97247e-14
8.85886e-14
8.66507e-14
8.50983e-14
8.35082e-14
8.26258e-14
8.08327e-14
8.02212e-14
7.84551e-14
7.8126e-14
7.61342e-14
7.60576e-14
7.37377e-14
7.39644e-14
7.13244e-14
7.18374e-14
6.88964e-14
6.9617e-14
6.64409e-14
6.73116e-14
6.39297e-14
6.48684e-14
6.12296e-14
6.23811e-14
5.86152e-14
5.99674e-14
5.62923e-14
5.77336e-14
5.40276e-14
5.54263e-14
5.15497e-14
5.29471e-14
4.93884e-14
5.03092e-14
4.68795e-14
4.78909e-14
4.45428e-14
4.52643e-14
4.22937e-14
4.28158e-14
3.99727e-14
3.98689e-14
3.75838e-14
3.70626e-14
3.43694e-14
3.40871e-14
2.96006e-14
2.75622e-14
2.99119e-14
2.2018e-14
2.06112e-14
1.0651e-13
1.03647e-13
9.72753e-14
9.62676e-14
9.42954e-14
9.15168e-14
9.00756e-14
8.83823e-14
8.66881e-14
8.52467e-14
8.388e-14
8.24645e-14
8.1312e-14
7.98661e-14
7.86796e-14
7.72233e-14
7.62748e-14
7.47041e-14
7.38475e-14
7.22159e-14
7.14528e-14
6.97631e-14
6.90941e-14
6.71801e-14
6.66768e-14
6.47511e-14
6.43088e-14
6.20928e-14
6.15453e-14
5.91082e-14
5.8396e-14
5.56349e-14
5.49717e-14
5.26329e-14
5.26545e-14
5.06784e-14
5.07636e-14
4.82605e-14
4.86727e-14
4.68507e-14
4.71142e-14
4.48899e-14
4.47876e-14
4.24291e-14
4.21528e-14
3.98851e-14
3.95888e-14
3.72912e-14
3.62956e-14
3.3478e-14
3.32609e-14
3.03081e-14
2.83185e-14
2.49025e-14
2.03201e-14
1.71275e-14
1.10158e-13
1.07978e-13
1.03089e-13
9.94056e-14
9.71439e-14
9.37978e-14
9.1443e-14
9.0002e-14
8.78419e-14
8.65895e-14
8.46624e-14
8.38141e-14
8.17899e-14
8.13878e-14
7.91675e-14
7.9095e-14
7.65354e-14
7.68174e-14
7.3804e-14
7.44691e-14
7.09373e-14
7.18797e-14
6.79531e-14
6.94465e-14
6.52955e-14
6.70459e-14
6.22835e-14
6.39449e-14
5.88482e-14
6.09782e-14
5.62422e-14
5.96242e-14
5.52172e-14
5.78434e-14
5.2266e-14
5.4506e-14
4.90894e-14
5.14787e-14
4.65955e-14
4.77964e-14
4.26236e-14
4.46865e-14
4.04032e-14
4.19029e-14
3.80543e-14
3.90396e-14
3.51068e-14
3.54812e-14
3.24163e-14
3.18087e-14
2.79951e-14
2.5403e-14
2.42307e-14
2.01678e-14
1.57549e-14
1.34511e-14
1.13619e-13
1.09352e-13
1.047e-13
1.0047e-13
9.84278e-14
9.62826e-14
9.43215e-14
9.23571e-14
9.0695e-14
8.91393e-14
8.779e-14
8.62523e-14
8.49514e-14
8.34509e-14
8.22604e-14
8.06827e-14
7.94458e-14
7.78405e-14
7.66106e-14
7.48911e-14
7.36894e-14
7.19424e-14
7.06082e-14
6.85219e-14
6.7049e-14
6.5098e-14
6.38602e-14
6.21875e-14
6.15197e-14
5.9738e-14
5.83945e-14
5.59825e-14
5.4282e-14
5.21166e-14
5.10081e-14
4.92236e-14
4.82368e-14
4.64747e-14
4.5251e-14
4.39115e-14
4.30877e-14
4.14862e-14
4.02145e-14
3.8715e-14
3.74998e-14
3.5962e-14
3.45648e-14
3.31008e-14
3.14409e-14
2.94404e-14
2.75987e-14
2.54325e-14
2.30144e-14
1.86812e-14
1.46646e-14
1.00572e-14
1.16355e-13
1.105e-13
1.05485e-13
1.02208e-13
9.95523e-14
9.7184e-14
9.51479e-14
9.33271e-14
9.16858e-14
9.01263e-14
8.86665e-14
8.72153e-14
8.58389e-14
8.44101e-14
8.30432e-14
8.15847e-14
8.01958e-14
7.86815e-14
7.72494e-14
7.56586e-14
7.41761e-14
7.25088e-14
7.10567e-14
6.98426e-14
6.90656e-14
6.78005e-14
6.5976e-14
6.31016e-14
6.01333e-14
5.72993e-14
5.55524e-14
5.43157e-14
5.35776e-14
5.23074e-14
5.0903e-14
4.91975e-14
4.77836e-14
4.61613e-14
4.47868e-14
4.32491e-14
4.19299e-14
4.04234e-14
3.91301e-14
3.76731e-14
3.63574e-14
3.48704e-14
3.34644e-14
3.18764e-14
3.02645e-14
2.84085e-14
2.64188e-14
2.40581e-14
2.13836e-14
1.80736e-14
1.30796e-14
7.19741e-15
)
;

boundaryField
{
    top
    {
        type            zeroGradient;
    }
    bottom
    {
        type            zeroGradient;
    }
    rotatingWall
    {
        type            zeroGradient;
    }
    wall
    {
        type            zeroGradient;
    }
    frontAndBack
    {
        type            empty;
    }
}


// ************************************************************************* //
