/*--------------------------------*- C++ -*----------------------------------*\
| =========                 |                                                 |
| \\      /  F ield         | OpenFOAM: The Open Source CFD Toolbox           |
|  \\    /   O peration     | Version:  5.0                                   |
|   \\  /    A nd           | Web:      www.OpenFOAM.org                      |
|    \\/     M anipulation  |                                                 |
\*---------------------------------------------------------------------------*/
FoamFile
{
    version     2.0;
    format      ascii;
    class       surfaceScalarField;
    location    "0.7";
    object      phi;
}
// * * * * * * * * * * * * * * * * * * * * * * * * * * * * * * * * * * * * * //

dimensions      [0 3 -1 0 0 0 0];

internalField   nonuniform List<scalar> 
85
(
0.000100749
1.4015e-19
0.000100749
3.12167e-20
0.000100749
-1.15906e-19
0.000100749
-2.71459e-20
-1.70209e-19
0.000100749
3.0436e-19
0.000100749
1.84282e-19
0.000100749
-8.34474e-20
0.000100749
-1.55714e-19
-8.51488e-21
0.000100749
3.69981e-19
0.000100749
1.93082e-19
0.000100749
-2.0628e-19
0.000100749
-2.06228e-19
7.48108e-20
0.000100749
4.78797e-19
0.000100749
2.14272e-19
0.000100749
-2.7402e-19
0.000100749
-2.51124e-19
2.49296e-19
0.000100749
5.05063e-19
0.000100749
2.89775e-19
0.000100749
-2.46198e-19
0.000100749
-2.42742e-19
1.6194e-19
0.000100749
5.74606e-19
0.000100749
3.57116e-19
0.000100749
-1.95203e-19
0.000100749
-1.30695e-19
2.70237e-19
0.000100749
6.37059e-19
0.000100749
3.46881e-19
0.000100749
-4.12053e-19
0.000100749
-2.08109e-19
2.62384e-19
0.000100749
7.44856e-19
0.000100749
3.79605e-19
0.000100749
-4.47562e-19
0.000100749
-1.13462e-19
2.4666e-19
0.000100749
7.68391e-19
0.000100749
3.53783e-19
0.000100749
-3.64676e-19
0.000100749
-2.71341e-19
2.51599e-19
0.000100749
0.000100749
0.000100749
0.000100749
)
;

boundaryField
{
    top
    {
        type            calculated;
        value           nonuniform List<scalar> 5(7.70941e-19 4.61955e-19 -4.74264e-19 -2.6011e-19 2.59187e-19);
    }
    bottom
    {
        type            symmetryPlane;
        value           uniform 0;
    }
    inlet
    {
        type            calculated;
        value           nonuniform List<scalar> 10(-0.000100749 -0.000100749 -0.000100749 -0.000100749 -0.000100749 -0.000100749 -0.000100749 -0.000100749 -0.000100749 -0.000100749);
    }
    outlet
    {
        type            calculated;
        value           nonuniform 0();
    }
    frontAndBack
    {
        type            empty;
        value           nonuniform 0();
    }
    procBoundary0to1
    {
        type            processor;
        value           nonuniform List<scalar> 10(0.000100749 0.000100749 0.000100749 0.000100749 0.000100749 0.000100749 0.000100749 0.000100749 0.000100749 0.000100749);
    }
}


// ************************************************************************* //
