/*--------------------------------*- C++ -*----------------------------------*\
| =========                 |                                                 |
| \\      /  F ield         | OpenFOAM: The Open Source CFD Toolbox           |
|  \\    /   O peration     | Version:  5.0                                   |
|   \\  /    A nd           | Web:      www.OpenFOAM.org                      |
|    \\/     M anipulation  |                                                 |
\*---------------------------------------------------------------------------*/
FoamFile
{
    version     2.0;
    format      ascii;
    class       volScalarField;
    location    "0.7";
    object      shearRate;
}
// * * * * * * * * * * * * * * * * * * * * * * * * * * * * * * * * * * * * * //

dimensions      [0 0 -1 0 0 0 0];

internalField   nonuniform List<scalar> 
50
(
1.88304e-14
2.34582e-14
7.60684e-15
2.22338e-14
2.2105e-14
2.32922e-14
1.0902e-14
2.25704e-14
2.20758e-14
2.42969e-14
2.66869e-14
1.7531e-14
5.54432e-15
2.29781e-14
1.28236e-14
2.76739e-14
3.06461e-14
2.28463e-14
2.28272e-14
4.45659e-14
2.15517e-14
2.84236e-14
2.22704e-14
4.39222e-14
2.27024e-14
2.86107e-14
1.29618e-14
8.75453e-15
1.95817e-15
2.32972e-14
2.66469e-14
4.5321e-14
7.83117e-15
5.82162e-15
2.29948e-14
1.31767e-14
2.56717e-14
1.05069e-14
2.3318e-14
2.24641e-14
2.43903e-14
2.52289e-14
2.35017e-14
4.42767e-14
2.25396e-14
2.445e-14
2.22713e-14
8.73204e-14
2.21686e-14
6.51137e-14
)
;

boundaryField
{
    top
    {
        type            zeroGradient;
    }
    bottom
    {
        type            symmetryPlane;
    }
    inlet
    {
        type            zeroGradient;
    }
    outlet
    {
        type            zeroGradient;
    }
    frontAndBack
    {
        type            empty;
    }
    procBoundary0to1
    {
        type            processor;
        value           nonuniform List<scalar> 10(2.25866e-14 2.24616e-14 2.38813e-14 4.38821e-14 7.32396e-15 6.23672e-15 6.51316e-14 4.39888e-14 6.54668e-14 8.69486e-14);
    }
}


// ************************************************************************* //
