/*--------------------------------*- C++ -*----------------------------------*\
| =========                 |                                                 |
| \\      /  F ield         | OpenFOAM: The Open Source CFD Toolbox           |
|  \\    /   O peration     | Version:  5.0                                   |
|   \\  /    A nd           | Web:      www.OpenFOAM.org                      |
|    \\/     M anipulation  |                                                 |
\*---------------------------------------------------------------------------*/
FoamFile
{
    version     2.0;
    format      ascii;
    class       surfaceScalarField;
    location    "0.5";
    object      phi;
}
// * * * * * * * * * * * * * * * * * * * * * * * * * * * * * * * * * * * * * //

dimensions      [0 3 -1 0 0 0 0];

internalField   nonuniform List<scalar> 
760
(
1.09461e-09
1.34344e-12
1.09305e-09
1.56508e-12
1.09269e-09
3.62623e-13
1.09256e-09
1.24848e-13
1.09254e-09
1.82244e-14
1.09254e-09
6.32244e-15
1.09254e-09
-6.93416e-16
1.09254e-09
6.96983e-16
1.09254e-09
-9.78864e-16
1.09254e-09
2.08074e-16
1.09254e-09
1.66317e-17
1.09254e-09
5.23588e-16
1.09254e-09
-5.57466e-17
1.09254e-09
1.59562e-16
1.09254e-09
-8.80094e-17
1.09254e-09
7.39542e-17
1.09254e-09
-5.11931e-17
1.09254e-09
6.4902e-17
1.09254e-09
1.99478e-17
8.59307e-17
1.08794e-09
2.67013e-12
1.08643e-09
3.07763e-12
1.08609e-09
7.02856e-13
1.08596e-09
2.51529e-13
1.08595e-09
3.11124e-14
1.08594e-09
1.57036e-14
1.08594e-09
-3.80349e-15
1.08594e-09
3.14905e-15
1.08594e-09
-3.24061e-15
1.08594e-09
1.34978e-15
1.08594e-09
-6.58578e-16
1.08594e-09
1.55989e-15
1.08594e-09
-4.90057e-16
1.08594e-09
6.01988e-16
1.08594e-09
-3.89616e-16
1.08594e-09
3.08118e-16
1.08594e-09
-2.24422e-16
1.08594e-09
2.32824e-16
1.08594e-09
-4.69965e-17
2.31475e-16
1.07466e-09
3.91982e-12
1.07324e-09
4.49743e-12
1.07292e-09
1.01799e-12
1.07281e-09
3.69063e-13
1.0728e-09
4.24654e-14
1.07279e-09
2.45772e-14
1.07279e-09
-6.891e-15
1.07279e-09
5.55198e-15
1.07279e-09
-5.46003e-15
1.07279e-09
2.45969e-15
1.07279e-09
-1.31735e-15
1.07279e-09
2.5815e-15
1.07279e-09
-9.22287e-16
1.07279e-09
1.03575e-15
1.07279e-09
-6.85694e-16
1.07279e-09
5.36718e-16
1.07279e-09
-3.96472e-16
1.07279e-09
3.96117e-16
1.07279e-09
-1.00412e-16
3.87185e-16
1.05483e-09
5.05626e-12
1.05355e-09
5.78084e-12
1.05327e-09
1.29644e-12
1.05316e-09
4.7338e-13
1.05315e-09
5.15987e-14
1.05315e-09
3.27388e-14
1.05315e-09
-9.95755e-15
1.05315e-09
7.89123e-15
1.05315e-09
-7.61053e-15
1.05315e-09
3.54048e-15
1.05315e-09
-1.97121e-15
1.05315e-09
3.57858e-15
1.05315e-09
-1.34931e-15
1.05315e-09
1.45487e-15
1.05315e-09
-9.74895e-16
1.05315e-09
7.60497e-16
1.05315e-09
-5.64644e-16
1.05315e-09
5.56724e-16
1.05315e-09
-1.45495e-16
5.447e-16
1.02857e-09
6.0461e-12
1.02746e-09
6.88833e-12
1.02723e-09
1.52822e-12
1.02714e-09
5.60914e-13
1.02713e-09
5.79722e-14
1.02713e-09
3.99919e-14
1.02713e-09
-1.29802e-14
1.02713e-09
1.01448e-14
1.02713e-09
-9.66372e-15
1.02713e-09
4.58217e-15
1.02713e-09
-2.61643e-15
1.02713e-09
4.53342e-15
1.02713e-09
-1.77055e-15
1.02713e-09
1.85609e-15
1.02713e-09
-1.25444e-15
1.02713e-09
9.75766e-16
1.02713e-09
-7.28458e-16
1.02713e-09
7.1079e-16
1.02713e-09
-1.80815e-16
7.04648e-16
9.96026e-10
6.85942e-12
9.95129e-10
7.78493e-12
9.94952e-10
1.70506e-12
9.94884e-10
6.28759e-13
9.94881e-10
6.12047e-14
9.94875e-10
4.61743e-14
9.94878e-10
-1.59273e-14
9.94876e-10
1.22861e-14
9.94878e-10
-1.15806e-14
9.94877e-10
5.58294e-15
9.94877e-10
-3.25695e-15
9.94876e-10
5.42343e-15
9.94877e-10
-2.18235e-15
9.94876e-10
2.23277e-15
9.94877e-10
-1.52092e-15
9.94876e-10
1.1806e-15
9.94877e-10
-8.85488e-16
9.94876e-10
8.56723e-16
9.94876e-10
-2.10995e-16
8.59861e-16
9.57393e-10
7.47084e-12
9.56736e-10
8.44176e-12
9.56621e-10
1.82093e-12
9.56574e-10
6.74824e-13
9.56575e-10
6.10929e-14
9.5657e-10
5.11627e-14
9.56572e-10
-1.87566e-14
9.5657e-10
1.42874e-14
9.56572e-10
-1.33269e-14
9.56571e-10
6.53304e-15
9.56572e-10
-3.88904e-15
9.56571e-10
6.22809e-15
9.56571e-10
-2.58003e-15
9.56571e-10
2.57988e-15
9.56571e-10
-1.77101e-15
9.56571e-10
1.37147e-15
9.56571e-10
-1.03299e-15
9.56571e-10
9.91782e-16
9.56571e-10
-2.39841e-16
1.00435e-15
9.12894e-10
7.86036e-12
9.12499e-10
8.83699e-12
9.12447e-10
1.87228e-12
9.12424e-10
6.97929e-13
9.12428e-10
5.76392e-14
9.12424e-10
5.48751e-14
9.12427e-10
-2.14135e-14
9.12425e-10
1.61162e-14
9.12426e-10
-1.48654e-14
9.12425e-10
7.42358e-15
9.12426e-10
-4.50651e-15
9.12425e-10
6.92475e-15
9.12426e-10
-2.95885e-15
9.12425e-10
2.89095e-15
9.12426e-10
-2e-15
9.12425e-10
1.54535e-15
9.12426e-10
-1.16894e-15
9.12425e-10
1.11261e-15
9.12425e-10
-2.69773e-16
1.1334e-15
8.62785e-10
8.01437e-12
8.62665e-10
8.9571e-12
8.62679e-10
1.85832e-12
8.62679e-10
6.97876e-13
8.62686e-10
5.10601e-14
8.62683e-10
5.72682e-14
8.62686e-10
-2.38283e-14
8.62684e-10
1.77342e-14
8.62685e-10
-1.61576e-14
8.62685e-10
8.23789e-15
8.62685e-10
-5.09843e-15
8.62685e-10
7.49305e-15
8.62685e-10
-3.30997e-15
8.62685e-10
3.15925e-15
8.62685e-10
-2.20313e-15
8.62685e-10
1.69775e-15
8.62685e-10
-1.28951e-15
8.62685e-10
1.21625e-15
8.62685e-10
-3.03999e-16
1.24029e-15
8.07358e-10
7.92665e-12
8.07517e-10
8.79804e-12
8.07594e-10
1.78126e-12
8.07616e-10
6.75486e-13
8.07626e-10
4.179e-14
8.07624e-10
5.83342e-14
8.07627e-10
-2.59164e-14
8.07625e-10
1.90945e-14
8.07626e-10
-1.71625e-14
8.07625e-10
8.95558e-15
8.07626e-10
-5.64783e-15
8.07626e-10
7.91182e-15
8.07626e-10
-3.62404e-15
8.07626e-10
3.37641e-15
8.07626e-10
-2.37364e-15
8.07626e-10
1.82456e-15
8.07626e-10
-1.39175e-15
8.07626e-10
1.29871e-15
8.07626e-10
-3.43391e-16
1.32028e-15
7.46933e-10
7.5994e-12
7.47364e-10
8.36638e-12
7.47499e-10
1.64636e-12
7.47542e-10
6.326e-13
7.47553e-10
3.04711e-14
7.47554e-10
5.80924e-14
7.47555e-10
-2.75755e-14
7.47554e-10
2.01416e-14
7.47555e-10
-1.78353e-14
7.47554e-10
9.54694e-15
7.47555e-10
-6.13259e-15
7.47555e-10
8.16114e-15
7.47555e-10
-3.88647e-15
7.47555e-10
3.53362e-15
7.47555e-10
-2.50462e-15
7.47555e-10
1.91969e-15
7.47555e-10
-1.47032e-15
7.47555e-10
1.35647e-15
7.47555e-10
-3.88942e-16
1.36729e-15
6.8186e-10
7.0444e-12
6.82546e-10
7.68045e-12
6.8273e-10
1.46195e-12
6.82791e-10
5.72031e-13
6.82803e-10
1.7937e-14
6.82805e-10
5.65802e-14
6.82806e-10
-2.86869e-14
6.82805e-10
2.08063e-14
6.82805e-10
-1.81267e-14
6.82805e-10
9.976e-15
6.82805e-10
-6.52223e-15
6.82805e-10
8.21996e-15
6.82806e-10
-4.08132e-15
6.82805e-10
3.61995e-15
6.82806e-10
-2.5867e-15
6.82806e-10
1.97736e-15
6.82806e-10
-1.52074e-15
6.82806e-10
1.38487e-15
6.82806e-10
-4.38482e-16
1.37778e-15
6.12516e-10
6.2841e-12
6.13425e-10
6.77148e-12
6.13648e-10
1.23939e-12
6.13723e-10
4.97475e-13
6.13735e-10
5.18289e-15
6.13738e-10
5.38366e-14
6.13738e-10
-2.9111e-14
6.13738e-10
2.10051e-14
6.13738e-10
-1.79814e-14
6.13738e-10
1.01938e-14
6.13738e-10
-6.77879e-15
6.13738e-10
8.06788e-15
6.13738e-10
-4.18616e-15
6.13738e-10
3.62324e-15
6.13738e-10
-2.60976e-15
6.13738e-10
1.989e-15
6.13738e-10
-1.53556e-15
6.13738e-10
1.37962e-15
6.13739e-10
-4.89021e-16
1.34668e-15
5.39304e-10
5.35293e-12
5.40391e-10
5.68477e-12
5.40638e-10
9.92749e-13
5.40722e-10
4.13372e-13
5.40734e-10
-6.66977e-15
5.40738e-10
4.98872e-14
5.40737e-10
-2.86895e-14
5.40738e-10
2.06348e-14
5.40737e-10
-1.73359e-14
5.40737e-10
1.01417e-14
5.40737e-10
-6.85329e-15
5.40737e-10
7.683e-15
5.40737e-10
-4.17607e-15
5.40738e-10
3.52821e-15
5.40737e-10
-2.56061e-15
5.40738e-10
1.94616e-15
5.40738e-10
-1.50792e-15
5.40738e-10
1.33517e-15
5.40738e-10
-5.33871e-16
1.27226e-15
4.62648e-10
4.29858e-12
4.63852e-10
4.4808e-12
4.64106e-10
7.38518e-13
4.64195e-10
3.24711e-13
4.64204e-10
-1.64206e-14
4.64209e-10
4.47211e-14
4.64208e-10
-2.7239e-14
4.64209e-10
1.95703e-14
4.64208e-10
-1.61173e-14
4.64208e-10
9.74342e-15
4.64208e-10
-6.68547e-15
4.64209e-10
7.04272e-15
4.64209e-10
-4.01821e-15
4.64209e-10
3.3173e-15
4.64209e-10
-2.42447e-15
4.64209e-10
1.83706e-15
4.64209e-10
-1.42758e-15
4.64209e-10
1.2458e-15
4.64209e-10
-5.64494e-16
1.15123e-15
3.82991e-10
3.18339e-12
3.84235e-10
3.23624e-12
3.84479e-10
4.94973e-13
3.84567e-10
2.36779e-13
3.84573e-10
-2.28418e-14
3.8458e-10
3.82708e-14
3.84577e-10
-2.45526e-14
3.84579e-10
1.76569e-14
3.84577e-10
-1.42403e-14
3.84578e-10
8.90698e-15
3.84577e-10
-6.19993e-15
3.84578e-10
6.12449e-15
3.84578e-10
-3.67465e-15
3.84578e-10
2.96788e-15
3.84578e-10
-2.18259e-15
3.84578e-10
1.64943e-15
3.84578e-10
-1.2841e-15
3.84578e-10
1.10489e-15
3.84578e-10
-5.70299e-16
9.80652e-16
3.00795e-10
2.08581e-12
3.01986e-10
2.045e-12
3.022e-10
2.81482e-13
3.02282e-10
1.54889e-13
3.02284e-10
-2.47352e-14
3.02291e-10
3.03862e-14
3.02287e-10
-2.03941e-14
3.0229e-10
1.47085e-14
3.02288e-10
-1.16082e-14
3.02289e-10
7.5175e-15
3.02288e-10
-5.30376e-15
3.02289e-10
4.90609e-15
3.02289e-10
-3.09817e-15
3.02289e-10
2.4526e-15
3.02289e-10
-1.81333e-15
3.02289e-10
1.36718e-15
3.02289e-10
-1.06466e-15
3.02289e-10
9.04434e-16
3.02289e-10
-5.32039e-16
7.62145e-16
2.16537e-10
1.10205e-12
2.17563e-10
1.01922e-12
2.17727e-10
1.17698e-13
2.17798e-10
8.40426e-14
2.17794e-10
-2.0989e-14
2.17804e-10
2.08073e-14
2.17798e-10
-1.44944e-14
2.17802e-10
1.05004e-14
2.17798e-10
-8.10836e-15
2.178e-10
5.43546e-15
2.17799e-10
-3.88321e-15
2.17801e-10
3.36452e-15
2.178e-10
-2.23462e-15
2.178e-10
1.73797e-15
2.178e-10
-1.29062e-15
2.178e-10
9.71505e-16
2.178e-10
-7.5593e-16
2.178e-10
6.34627e-16
2.178e-10
-4.24459e-16
5.01236e-16
1.30706e-10
3.47929e-13
1.31435e-10
2.90337e-13
1.3153e-10
2.25245e-14
1.31586e-10
2.84062e-14
1.31575e-10
-1.06178e-14
1.31587e-10
9.1045e-15
1.31579e-10
-6.52168e-15
1.31585e-10
4.74707e-15
1.3158e-10
-3.59555e-15
1.31583e-10
2.48472e-15
1.31581e-10
-1.79366e-15
1.31583e-10
1.46762e-15
1.31582e-10
-1.01791e-15
1.31583e-10
7.80703e-16
1.31582e-10
-5.81678e-16
1.31583e-10
4.37991e-16
1.31582e-10
-3.39561e-16
1.31583e-10
2.83304e-16
1.31582e-10
-2.11288e-16
2.08335e-16
4.37793e-11
4.40696e-11
4.40922e-11
4.41206e-11
4.41099e-11
4.41191e-11
4.41125e-11
4.41173e-11
4.41137e-11
4.41162e-11
4.41144e-11
4.41158e-11
4.41148e-11
4.41156e-11
4.4115e-11
4.41155e-11
4.41151e-11
4.41154e-11
4.41152e-11
)
;

boundaryField
{
    top
    {
        type            calculated;
        value           uniform 0;
    }
    bottom
    {
        type            symmetryPlane;
        value           uniform 0;
    }
    inlet
    {
        type            calculated;
        value           nonuniform List<scalar> 
20
(
-1.09596e-09
-1.08927e-09
-1.07591e-09
-1.05597e-09
-1.02956e-09
-9.96839e-10
-9.58005e-10
-9.13283e-10
-8.62939e-10
-8.0727e-10
-7.46605e-10
-6.81305e-10
-6.11756e-10
-5.38373e-10
-4.61593e-10
-3.81875e-10
-2.99697e-10
-2.15554e-10
-1.29952e-10
-4.34314e-11
)
;
    }
    outlet
    {
        type            calculated;
        value           nonuniform List<scalar> 
20
(
1.09254e-09
1.08594e-09
1.07279e-09
1.05315e-09
1.02713e-09
9.94876e-10
9.56571e-10
9.12425e-10
8.62685e-10
8.07626e-10
7.47555e-10
6.82806e-10
6.13739e-10
5.40738e-10
4.64209e-10
3.84578e-10
3.02289e-10
2.178e-10
1.31583e-10
4.41154e-11
)
;
    }
    frontAndBack
    {
        type            empty;
        value           nonuniform 0();
    }
}


// ************************************************************************* //
