/*--------------------------------*- C++ -*----------------------------------*\
| =========                 |                                                 |
| \\      /  F ield         | OpenFOAM: The Open Source CFD Toolbox           |
|  \\    /   O peration     | Version:  5.0                                   |
|   \\  /    A nd           | Web:      www.OpenFOAM.org                      |
|    \\/     M anipulation  |                                                 |
\*---------------------------------------------------------------------------*/
FoamFile
{
    version     2.0;
    format      ascii;
    class       volScalarField;
    location    "0.5";
    object      shearRate;
}
// * * * * * * * * * * * * * * * * * * * * * * * * * * * * * * * * * * * * * //

dimensions      [0 0 -1 0 0 0 0];

internalField   nonuniform List<scalar> 
400
(
1.37209e-05
1.35677e-05
1.35058e-05
1.3487e-05
1.34849e-05
1.34835e-05
1.34839e-05
1.34836e-05
1.34838e-05
1.34836e-05
1.34837e-05
1.34837e-05
1.34837e-05
1.34837e-05
1.34837e-05
1.34837e-05
1.34837e-05
1.34837e-05
1.34837e-05
1.34837e-05
4.10212e-05
4.05491e-05
4.044e-05
4.03874e-05
4.03821e-05
4.03778e-05
4.03789e-05
4.03779e-05
4.03787e-05
4.03782e-05
4.03785e-05
4.03782e-05
4.03784e-05
4.03783e-05
4.03784e-05
4.03783e-05
4.03783e-05
4.03783e-05
4.03783e-05
4.03784e-05
6.80941e-05
6.73179e-05
6.71496e-05
6.70644e-05
6.70563e-05
6.70492e-05
6.70512e-05
6.70494e-05
6.70507e-05
6.70499e-05
6.70505e-05
6.705e-05
6.70503e-05
6.705e-05
6.70502e-05
6.70501e-05
6.70502e-05
6.70501e-05
6.70501e-05
6.70502e-05
9.4768e-05
9.3707e-05
9.34838e-05
9.33687e-05
9.33586e-05
9.33488e-05
9.33518e-05
9.33492e-05
9.33511e-05
9.33499e-05
9.33508e-05
9.335e-05
9.33505e-05
9.33501e-05
9.33503e-05
9.33501e-05
9.33503e-05
9.33502e-05
9.33502e-05
9.33503e-05
0.000120884
0.000119564
0.000119295
0.000119154
0.000119143
0.00011913
0.000119134
0.000119131
0.000119134
0.000119132
0.000119133
0.000119132
0.000119133
0.000119132
0.000119132
0.000119132
0.000119132
0.000119132
0.000119132
0.000119132
0.000146288
0.000144742
0.000144437
0.000144275
0.000144264
0.000144249
0.000144254
0.00014425
0.000144253
0.000144251
0.000144253
0.000144251
0.000144252
0.000144251
0.000144252
0.000144251
0.000144252
0.000144252
0.000144252
0.000144252
0.000170828
0.000169097
0.000168769
0.000168592
0.000168583
0.000168565
0.000168572
0.000168567
0.000168571
0.000168568
0.00016857
0.000168568
0.000168569
0.000168568
0.000168569
0.000168569
0.000168569
0.000168569
0.000168569
0.000168569
0.000194359
0.000192491
0.000192156
0.000191969
0.000191963
0.000191944
0.000191952
0.000191945
0.000191951
0.000191947
0.00019195
0.000191948
0.000191949
0.000191948
0.000191949
0.000191948
0.000191948
0.000191948
0.000191948
0.000191948
0.000216742
0.000214792
0.000214467
0.000214277
0.000214276
0.000214254
0.000214265
0.000214257
0.000214263
0.000214259
0.000214262
0.000214259
0.000214261
0.00021426
0.00021426
0.00021426
0.00021426
0.00021426
0.00021426
0.00021426
0.000237842
0.000235876
0.000235577
0.000235391
0.000235397
0.000235373
0.000235386
0.000235376
0.000235384
0.000235379
0.000235383
0.000235379
0.000235381
0.00023538
0.000235381
0.00023538
0.000235381
0.00023538
0.00023538
0.00023538
0.000257533
0.000255624
0.00025537
0.000255195
0.00025521
0.000255182
0.000255198
0.000255186
0.000255195
0.00025519
0.000255194
0.00025519
0.000255193
0.000255191
0.000255192
0.000255191
0.000255192
0.000255191
0.000255192
0.000255191
0.000275696
0.000273926
0.000273737
0.000273577
0.000273603
0.000273572
0.000273592
0.000273577
0.000273588
0.000273581
0.000273587
0.000273582
0.000273585
0.000273583
0.000273584
0.000273583
0.000273584
0.000273583
0.000273584
0.000273583
0.00029222
0.000290683
0.000290575
0.000290436
0.000290475
0.00029044
0.000290464
0.000290447
0.00029046
0.000290451
0.000290458
0.000290452
0.000290456
0.000290453
0.000290455
0.000290454
0.000290455
0.000290454
0.000290454
0.000290454
0.000307005
0.000305802
0.000305793
0.000305679
0.000305732
0.000305692
0.000305721
0.0003057
0.000305716
0.000305705
0.000305713
0.000305707
0.000305711
0.000305708
0.00030571
0.000305709
0.00030571
0.000305709
0.00030571
0.000305709
0.000319956
0.000319203
0.000319308
0.00031922
0.000319289
0.000319243
0.000319278
0.000319253
0.000319272
0.000319258
0.000319268
0.000319261
0.000319266
0.000319262
0.000319265
0.000319263
0.000319264
0.000319263
0.000319264
0.000319263
0.000330993
0.000330814
0.000331044
0.000330983
0.000331069
0.000331016
0.000331058
0.000331028
0.00033105
0.000331034
0.000331046
0.000331037
0.000331043
0.000331038
0.000331042
0.000331039
0.000331041
0.00033104
0.000331041
0.00033104
0.000340042
0.000340576
0.000340939
0.000340901
0.000341007
0.000340944
0.000340994
0.000340957
0.000340984
0.000340964
0.000340979
0.000340968
0.000340976
0.00034097
0.000340975
0.000340972
0.000340974
0.000340972
0.000340973
0.000340973
0.000347041
0.00034844
0.000348939
0.000348919
0.000349046
0.00034897
0.00034903
0.000348986
0.000349018
0.000348994
0.000349012
0.000348999
0.000349009
0.000349002
0.000349007
0.000349003
0.000349006
0.000349004
0.000349005
0.000349005
0.00035194
0.000354375
0.000355006
0.000354995
0.000355144
0.000355053
0.000355124
0.000355072
0.00035511
0.000355081
0.000355102
0.000355087
0.000355099
0.00035509
0.000355096
0.000355092
0.000355095
0.000355093
0.000355094
0.000355094
0.0003547
0.000358363
0.000359115
0.000359098
0.000359271
0.00035916
0.000359246
0.000359183
0.000359228
0.000359193
0.000359219
0.000359201
0.000359215
0.000359205
0.000359212
0.000359207
0.000359211
0.000359208
0.00035921
0.00035921
)
;

boundaryField
{
    top
    {
        type            zeroGradient;
    }
    bottom
    {
        type            symmetryPlane;
    }
    inlet
    {
        type            zeroGradient;
    }
    outlet
    {
        type            zeroGradient;
    }
    frontAndBack
    {
        type            empty;
    }
}


// ************************************************************************* //
