/*--------------------------------*- C++ -*----------------------------------*\
| =========                 |                                                 |
| \\      /  F ield         | OpenFOAM: The Open Source CFD Toolbox           |
|  \\    /   O peration     | Version:  5.0                                   |
|   \\  /    A nd           | Web:      www.OpenFOAM.org                      |
|    \\/     M anipulation  |                                                 |
\*---------------------------------------------------------------------------*/
FoamFile
{
    version     2.0;
    format      ascii;
    class       volScalarField;
    location    "0.5";
    object      shearRate;
}
// * * * * * * * * * * * * * * * * * * * * * * * * * * * * * * * * * * * * * //

dimensions      [0 0 -1 0 0 0 0];

internalField   nonuniform List<scalar> 
50
(
2.01715
2.01701
2.01753
2.01695
2.03384
2.04642
3.80651
3.90144
3.93037
3.98243
6.05146
6.05101
6.05258
6.05009
6.08086
6.06192
7.70975
7.83474
7.87131
7.93259
10.0858
10.085
10.0876
10.0821
10.1045
10.0744
9.83531
9.84567
9.85535
9.86295
14.1201
14.1188
14.1227
14.1136
14.1293
14.0907
13.8409
13.7992
13.7999
13.7889
18.1544
18.1526
18.1581
18.1447
18.1614
18.1178
17.8305
17.7441
17.7421
17.7175
)
;

boundaryField
{
    top
    {
        type            zeroGradient;
    }
    bottom
    {
        type            symmetryPlane;
    }
    inlet
    {
        type            zeroGradient;
    }
    outlet
    {
        type            zeroGradient;
    }
    frontAndBack
    {
        type            empty;
    }
}


// ************************************************************************* //
