/*--------------------------------*- C++ -*----------------------------------*\
| =========                 |                                                 |
| \\      /  F ield         | OpenFOAM: The Open Source CFD Toolbox           |
|  \\    /   O peration     | Version:  5.0                                   |
|   \\  /    A nd           | Web:      www.OpenFOAM.org                      |
|    \\/     M anipulation  |                                                 |
\*---------------------------------------------------------------------------*/
FoamFile
{
    version     2.0;
    format      ascii;
    class       volVectorField;
    location    "0.5";
    object      U;
}
// * * * * * * * * * * * * * * * * * * * * * * * * * * * * * * * * * * * * * //

dimensions      [0 1 -1 0 0 0 0];

internalField   nonuniform List<vector> 
400
(
(2.19207e-05 1.34819e-09 -5.09585e-31)
(2.18612e-05 1.56914e-09 -3.13003e-30)
(2.18594e-05 3.64755e-10 -2.23631e-30)
(2.1849e-05 1.26397e-10 0)
(2.18528e-05 1.79491e-11 0)
(2.18494e-05 6.72058e-12 2.31521e-30)
(2.18518e-05 -9.29603e-13 2.30353e-30)
(2.185e-05 8.96267e-13 -2.29743e-30)
(2.18513e-05 -1.11247e-12 -2.29746e-30)
(2.18504e-05 3.29146e-13 0)
(2.18511e-05 -4.46248e-14 8.94679e-33)
(2.18505e-05 5.61979e-13 0)
(2.18509e-05 -1.23407e-13 0)
(2.18506e-05 1.84945e-13 0)
(2.18508e-05 -1.2115e-13 0)
(2.18507e-05 8.71802e-14 2.3284e-30)
(2.18508e-05 -6.99536e-14 -1.58251e-33)
(2.18507e-05 7.91563e-14 1.00906e-44)
(2.18508e-05 5.78035e-15 -1.98157e-52)
(2.18508e-05 9.53846e-14 -2.33902e-30)
(2.17867e-05 4.03675e-09 -1.20256e-43)
(2.17287e-05 4.67406e-09 -1.16611e-30)
(2.17273e-05 1.07545e-09 2.73469e-31)
(2.17171e-05 3.79195e-10 -1.9469e-30)
(2.17209e-05 5.02465e-11 0)
(2.17175e-05 2.19777e-11 0)
(2.17199e-05 -4.31038e-12 -4.57184e-32)
(2.17181e-05 3.7193e-12 3.9937e-30)
(2.17194e-05 -4.1447e-12 2.51957e-32)
(2.17185e-05 1.48471e-12 -3.9644e-30)
(2.17192e-05 -6.03892e-13 -1.98705e-30)
(2.17186e-05 2.06331e-12 -1.9936e-30)
(2.1719e-05 -5.01142e-13 0)
(2.17187e-05 7.49015e-13 0)
(2.17189e-05 -4.57856e-13 -1.98983e-30)
(2.17188e-05 3.738e-13 -5.96784e-33)
(2.17189e-05 -2.62615e-13 1.98314e-30)
(2.17188e-05 2.89007e-13 1.98507e-30)
(2.17189e-05 -2.20895e-14 -1.53735e-33)
(2.17189e-05 3.0658e-13 -1.99403e-30)
(2.15195e-05 6.63446e-09 -5.66661e-31)
(2.14646e-05 7.63288e-09 1.00069e-29)
(2.14638e-05 1.73764e-09 2.02933e-30)
(2.14539e-05 6.25355e-10 -1.96569e-30)
(2.14578e-05 7.51064e-11 -1.99876e-30)
(2.14544e-05 4.01597e-11 1.20205e-32)
(2.14568e-05 -1.03912e-11 -5.21104e-33)
(2.1455e-05 8.50453e-12 1.98608e-30)
(2.14563e-05 -8.55722e-12 1.36512e-33)
(2.14554e-05 3.71396e-12 -1.98127e-30)
(2.14561e-05 -1.88833e-12 1.98705e-30)
(2.14555e-05 4.07777e-12 3.69914e-34)
(2.14559e-05 -1.37754e-12 -1.98622e-30)
(2.14556e-05 1.6039e-12 -1.98388e-30)
(2.14558e-05 -1.05466e-12 3.97116e-30)
(2.14557e-05 8.26912e-13 1.98529e-30)
(2.14558e-05 -6.0995e-13 -3.97109e-30)
(2.14557e-05 6.19412e-13 5.34509e-34)
(2.14558e-05 -1.43207e-13 3.62278e-34)
(2.14558e-05 6.11165e-13 -5.7437e-34)
(2.11206e-05 9.0402e-09 -6.14678e-30)
(2.10702e-05 1.03561e-08 1.53815e-29)
(2.10704e-05 2.3355e-09 -4.05311e-30)
(2.1061e-05 8.49829e-10 -2.68689e-30)
(2.10649e-05 9.53964e-11 1.99862e-30)
(2.10616e-05 5.76646e-11 2.01308e-30)
(2.10639e-05 -1.68231e-11 1.96943e-30)
(2.10622e-05 1.34492e-11 1.5897e-32)
(2.10635e-05 -1.30918e-11 -1.98911e-30)
(2.10626e-05 5.9921e-12 1.98958e-30)
(2.10632e-05 -3.28208e-12 1.97332e-30)
(2.10627e-05 6.17071e-12 -3.97658e-33)
(2.10631e-05 -2.25733e-12 -4.75798e-33)
(2.10628e-05 2.49511e-12 2.61146e-33)
(2.1063e-05 -1.65824e-12 -5.96869e-33)
(2.10629e-05 1.29434e-12 -1.32015e-33)
(2.1063e-05 -9.55487e-13 1.98462e-30)
(2.10629e-05 9.51341e-13 -1.98308e-30)
(2.1063e-05 -2.47277e-13 -1.91914e-33)
(2.10629e-05 9.24148e-13 3.98788e-30)
(2.05924e-05 1.11824e-08 1.91477e-29)
(2.05479e-05 1.2765e-08 -1.46638e-29)
(2.05493e-05 2.85006e-09 -6.06893e-30)
(2.05405e-05 1.04346e-09 -1.10414e-30)
(2.05445e-05 1.11016e-10 3.92928e-30)
(2.05412e-05 7.32613e-11 1.97524e-30)
(2.05436e-05 -2.29946e-11 0)
(2.05418e-05 1.81046e-11 -1.84813e-32)
(2.05431e-05 -1.73449e-11 0)
(2.05422e-05 8.16116e-12 3.9644e-30)
(2.05429e-05 -4.59804e-12 -8.09824e-33)
(2.05424e-05 8.14266e-12 -4.55775e-33)
(2.05427e-05 -3.13598e-12 1.98621e-30)
(2.05424e-05 3.32375e-12 -9.89686e-45)
(2.05426e-05 -2.23879e-12 2.28736e-33)
(2.05425e-05 1.74677e-12 -1.9834e-30)
(2.05426e-05 -1.30244e-12 1.98547e-30)
(2.05425e-05 1.27361e-12 1.98395e-30)
(2.05426e-05 -3.32333e-13 -1.03678e-33)
(2.05426e-05 1.25586e-12 7.36285e-34)
(1.99381e-05 1.2999e-08 -1.13199e-30)
(1.99006e-05 1.47849e-08 -2.13292e-29)
(1.99034e-05 3.26235e-09 3.93061e-30)
(1.98954e-05 1.20003e-09 4.85405e-31)
(1.98994e-05 1.20801e-10 -1.99823e-30)
(1.98962e-05 8.67378e-11 -5.00657e-32)
(1.98985e-05 -2.8957e-11 6.20183e-32)
(1.98968e-05 2.24984e-11 -4.31069e-32)
(1.98981e-05 -2.13253e-11 0)
(1.98972e-05 1.01821e-11 1.97259e-30)
(1.98978e-05 -5.87738e-12 -1.95847e-30)
(1.98973e-05 9.99584e-12 -1.9783e-30)
(1.98977e-05 -3.95172e-12 1.99157e-30)
(1.98974e-05 4.10347e-12 -1.98096e-30)
(1.98976e-05 -2.7821e-12 1.99362e-30)
(1.98975e-05 2.15747e-12 1.98336e-30)
(1.98976e-05 -1.61217e-12 -1.98614e-30)
(1.98975e-05 1.57126e-12 -2.47401e-33)
(1.98975e-05 -3.92641e-13 -1.98424e-30)
(1.98975e-05 1.56185e-12 -1.9934e-30)
(1.91614e-05 1.44348e-08 -7.52319e-44)
(1.9132e-05 1.63508e-08 1.07873e-29)
(1.91364e-05 3.55749e-09 -5.74733e-32)
(1.91292e-05 1.31473e-09 -1.04661e-30)
(1.91333e-05 1.23991e-10 1.00677e-31)
(1.91301e-05 9.79565e-11 -1.97529e-30)
(1.91324e-05 -3.47585e-11 -1.91855e-30)
(1.91307e-05 2.66504e-11 3.93415e-30)
(1.91319e-05 -2.50012e-11 2.00589e-30)
(1.91311e-05 1.21506e-11 -3.96441e-30)
(1.91317e-05 -7.15263e-12 2.02126e-30)
(1.91312e-05 1.17006e-11 1.9899e-30)
(1.91316e-05 -4.77762e-12 1.98927e-30)
(1.91313e-05 4.82853e-12 -1.98844e-30)
(1.91315e-05 -3.30169e-12 -3.9716e-30)
(1.91314e-05 2.56482e-12 5.95279e-30)
(1.91315e-05 -1.92935e-12 2.64699e-41)
(1.91314e-05 1.85535e-12 -1.98507e-30)
(1.91314e-05 -4.5146e-13 1.98655e-30)
(1.91314e-05 1.87698e-12 -1.89525e-33)
(1.8267e-05 1.5444e-08 1.21502e-29)
(1.82465e-05 1.74116e-08 7.67973e-30)
(1.82525e-05 3.72581e-09 -2.00841e-30)
(1.82462e-05 1.38424e-09 1.07672e-30)
(1.82503e-05 1.20372e-10 1.99777e-30)
(1.82472e-05 1.06678e-10 -1.91147e-30)
(1.82495e-05 -4.02651e-11 -2.0351e-30)
(1.82478e-05 3.04975e-11 2.06993e-30)
(1.8249e-05 -2.83049e-11 2.00871e-30)
(1.82481e-05 1.39834e-11 1.33797e-32)
(1.82488e-05 -8.4027e-12 1.94701e-30)
(1.82483e-05 1.321e-11 1.99096e-30)
(1.82487e-05 -5.54414e-12 -1.99324e-30)
(1.82484e-05 5.49053e-12 -9.32422e-33)
(1.82486e-05 -3.78241e-12 1.97878e-30)
(1.82485e-05 2.92151e-12 1.98786e-30)
(1.82485e-05 -2.20348e-12 1.76346e-41)
(1.82485e-05 2.11182e-12 -1.98349e-30)
(1.82485e-05 -5.07892e-13 1.98668e-30)
(1.82485e-05 2.1414e-12 3.98682e-30)
(1.72601e-05 1.59923e-08 -1.32695e-29)
(1.7249e-05 1.79312e-08 -1.38726e-29)
(1.72566e-05 3.76284e-09 2.00276e-30)
(1.72512e-05 1.40713e-09 5.2798e-31)
(1.72554e-05 1.10176e-10 -1.99753e-30)
(1.72524e-05 1.12807e-10 -6.92062e-32)
(1.72546e-05 -4.53856e-11 1.94365e-30)
(1.7253e-05 3.39657e-11 -3.41433e-32)
(1.72542e-05 -3.11552e-11 -1.98907e-30)
(1.72533e-05 1.57089e-11 3.96442e-30)
(1.7254e-05 -9.62351e-12 1.98703e-30)
(1.72535e-05 1.44892e-11 -8.36634e-33)
(1.72538e-05 -6.28965e-12 -3.9724e-30)
(1.72536e-05 6.07301e-12 -1.97389e-30)
(1.72538e-05 -4.21709e-12 3.97553e-30)
(1.72536e-05 3.25866e-12 1.98314e-30)
(1.72537e-05 -2.47072e-12 -1.98505e-30)
(1.72537e-05 2.33822e-12 -3.97187e-30)
(1.72537e-05 -5.71093e-13 1.98385e-30)
(1.72537e-05 2.3909e-12 3.98965e-30)
(1.61467e-05 1.60595e-08 -1.39689e-29)
(1.61453e-05 1.78915e-08 -1.3834e-29)
(1.61545e-05 3.66996e-09 1.997e-30)
(1.615e-05 1.38403e-09 2.18923e-42)
(1.61541e-05 9.40563e-11 -2.15928e-30)
(1.61513e-05 1.16255e-10 -4.38631e-42)
(1.61534e-05 -4.99276e-11 -2.10064e-30)
(1.61519e-05 3.69709e-11 -3.82276e-32)
(1.6153e-05 -3.34751e-11 3.95313e-30)
(1.61522e-05 1.72469e-11 -1.9649e-30)
(1.61528e-05 -1.07698e-11 -1.96988e-30)
(1.61523e-05 1.54819e-11 1.98361e-30)
(1.61527e-05 -6.95424e-12 3.97691e-30)
(1.61524e-05 6.56391e-12 -1.9844e-30)
(1.61526e-05 -4.59575e-12 -3.97159e-30)
(1.61525e-05 3.53455e-12 1.98475e-30)
(1.61526e-05 -2.69008e-12 -6.36353e-48)
(1.61525e-05 2.5271e-12 1.98694e-30)
(1.61525e-05 -6.45273e-13 1.98532e-30)
(1.61525e-05 2.5731e-12 8.8553e-42)
(1.49334e-05 1.56409e-08 -1.30778e-29)
(1.49415e-05 1.72944e-08 0)
(1.49521e-05 3.45459e-09 3.4977e-30)
(1.49485e-05 1.31758e-09 2.39413e-30)
(1.49526e-05 7.31002e-11 -1.99711e-30)
(1.49499e-05 1.17071e-10 2.0526e-30)
(1.4952e-05 -5.37351e-11 -5.97199e-32)
(1.49505e-05 3.94071e-11 -1.89537e-30)
(1.49516e-05 -3.51742e-11 1.96143e-30)
(1.49507e-05 1.85738e-11 2.19593e-42)
(1.49513e-05 -1.18219e-11 -5.71339e-32)
(1.49509e-05 1.61655e-11 -5.28538e-41)
(1.49512e-05 -7.54035e-12 -3.97754e-30)
(1.4951e-05 6.94178e-12 -6.40902e-33)
(1.49512e-05 -4.89861e-12 3.96677e-30)
(1.4951e-05 3.76209e-12 1.9866e-30)
(1.49511e-05 -2.87496e-12 -8.81728e-42)
(1.49511e-05 2.6676e-12 -3.96811e-30)
(1.49511e-05 -7.28511e-13 8.83554e-42)
(1.49511e-05 2.70623e-12 3.99013e-30)
(1.36274e-05 1.47499e-08 1.22469e-29)
(1.36446e-05 1.61642e-08 1.90959e-30)
(1.36563e-05 3.13033e-09 3.97202e-30)
(1.36536e-05 1.2125e-09 -1.96557e-30)
(1.36576e-05 4.87859e-11 -1.79194e-30)
(1.3655e-05 1.15295e-10 1.89543e-30)
(1.36569e-05 -5.65684e-11 1.30329e-31)
(1.36555e-05 4.11596e-11 -4.63937e-32)
(1.36566e-05 -3.61667e-11 3.02142e-32)
(1.36558e-05 1.962e-11 1.96051e-30)
(1.36563e-05 -1.27086e-11 -1.96606e-30)
(1.36559e-05 1.64784e-11 -1.99481e-30)
(1.36562e-05 -8.01107e-12 1.99213e-30)
(1.3656e-05 7.19255e-12 -1.97044e-30)
(1.36562e-05 -5.12008e-12 5.24922e-33)
(1.36561e-05 3.92034e-12 -2.04556e-33)
(1.36561e-05 -3.01054e-12 8.60346e-45)
(1.36561e-05 2.75848e-12 1.9807e-30)
(1.36561e-05 -8.27742e-13 -1.98729e-30)
(1.36561e-05 2.76752e-12 -1.99189e-30)
(1.22364e-05 1.34203e-08 -5.62579e-31)
(1.22619e-05 1.45501e-08 -1.90329e-30)
(1.22743e-05 2.717e-09 4.94591e-30)
(1.22723e-05 1.07534e-09 -2.29589e-31)
(1.22761e-05 2.29735e-11 -3.99371e-30)
(1.22737e-05 1.11018e-10 -8.26275e-32)
(1.22756e-05 -5.81734e-11 1.40871e-31)
(1.22742e-05 4.20646e-11 -5.04551e-32)
(1.22752e-05 -3.63389e-11 2.02177e-30)
(1.22744e-05 2.02819e-11 -4.29837e-45)
(1.2275e-05 -1.33796e-11 4.57268e-32)
(1.22746e-05 1.64007e-11 1.20451e-32)
(1.22749e-05 -8.31252e-12 1.99306e-30)
(1.22747e-05 7.28738e-12 7.5544e-33)
(1.22748e-05 -5.22673e-12 -1.98579e-30)
(1.22747e-05 3.98743e-12 3.9672e-30)
(1.22748e-05 -3.07062e-12 -1.98666e-30)
(1.22747e-05 2.781e-12 -1.98742e-30)
(1.22748e-05 -9.26473e-13 1.98532e-30)
(1.22748e-05 2.74176e-12 -8.85534e-42)
(1.07688e-05 1.17084e-08 8.90718e-30)
(1.0801e-05 1.25281e-08 0)
(1.08138e-05 2.24013e-09 1.97739e-30)
(1.08124e-05 9.14323e-10 -1.95508e-31)
(1.0816e-05 -2.21559e-12 -1.99681e-30)
(1.08137e-05 1.04325e-10 -1.89095e-30)
(1.08155e-05 -5.82667e-11 -4.43231e-42)
(1.08142e-05 4.1953e-11 2.03441e-30)
(1.08151e-05 -3.55827e-11 1.95393e-30)
(1.08144e-05 2.04971e-11 4.29814e-45)
(1.0815e-05 -1.37348e-11 -4.30857e-45)
(1.08146e-05 1.58685e-11 -2.55784e-32)
(1.08149e-05 -8.4364e-12 1.97829e-30)
(1.08147e-05 7.20493e-12 -2.43202e-32)
(1.08148e-05 -5.21196e-12 -3.97771e-30)
(1.08147e-05 3.97149e-12 3.96688e-30)
(1.08148e-05 -3.07514e-12 1.64934e-33)
(1.08147e-05 2.73753e-12 -1.98254e-30)
(1.08148e-05 -1.0303e-12 2.44347e-33)
(1.08148e-05 2.64861e-12 -1.99405e-30)
(9.23316e-06 9.6961e-09 5.24795e-30)
(9.27036e-06 1.02037e-08 1.93445e-31)
(9.28287e-06 1.73062e-09 0)
(9.28197e-06 7.39059e-10 2.63509e-46)
(9.2853e-06 -2.44394e-11 2.26017e-30)
(9.28325e-06 9.52354e-11 -4.36118e-47)
(9.28485e-06 -5.64935e-11 -2.22857e-42)
(9.28368e-06 4.05895e-11 1.98006e-30)
(9.28453e-06 -3.37649e-11 2.02593e-46)
(9.28389e-06 2.00722e-11 -1.98224e-30)
(9.28436e-06 -1.36795e-11 -3.974e-30)
(9.28403e-06 1.48672e-11 1.97006e-30)
(9.28428e-06 -8.26978e-12 -8.76619e-42)
(9.2841e-06 6.90851e-12 -2.64555e-41)
(9.28423e-06 -5.03103e-12 1.98578e-30)
(9.28413e-06 3.81448e-12 -1.98477e-30)
(9.2842e-06 -2.95762e-12 1.98794e-30)
(9.28416e-06 2.60369e-12 -8.81546e-42)
(9.28418e-06 -1.10441e-12 8.82515e-42)
(9.28418e-06 2.4432e-12 1.99405e-30)
(7.6388e-06 7.49122e-09 -3.28533e-30)
(7.67844e-06 7.71178e-09 -1.88968e-30)
(7.69014e-06 1.22319e-09 1.72798e-45)
(7.68961e-06 5.59886e-10 -2.35322e-30)
(7.69255e-06 -4.12982e-11 -1.99695e-30)
(7.69075e-06 8.37375e-11 -9.35527e-32)
(7.69216e-06 -5.25169e-11 2.20306e-42)
(7.69112e-06 3.77338e-11 1.91609e-30)
(7.69188e-06 -3.07326e-11 2.03001e-30)
(7.69131e-06 1.89248e-11 -4.2984e-45)
(7.69172e-06 -1.30765e-11 -2.01602e-30)
(7.69143e-06 1.33099e-11 1.47626e-32)
(7.69165e-06 -7.8136e-12 3.98329e-30)
(7.69149e-06 6.36876e-12 1.90794e-32)
(7.69161e-06 -4.67294e-12 -3.96427e-30)
(7.69153e-06 3.53922e-12 0)
(7.69159e-06 -2.75862e-12 -1.90557e-33)
(7.69155e-06 2.38242e-12 1.98203e-30)
(7.69157e-06 -1.15993e-12 -3.16972e-33)
(7.69156e-06 2.16204e-12 -1.99406e-30)
(5.99524e-06 5.22646e-09 -5.59351e-31)
(6.03418e-06 5.21576e-09 -1.8878e-30)
(6.04444e-06 7.55098e-10 1.56217e-30)
(6.04414e-06 3.87016e-10 3.42284e-31)
(6.04662e-06 -5.01429e-11 -4.30028e-30)
(6.04509e-06 6.94236e-11 0)
(6.04628e-06 -4.57422e-11 -9.81393e-32)
(6.04541e-06 3.293e-11 7.26983e-32)
(6.04605e-06 -2.62535e-11 1.98897e-30)
(6.04556e-06 1.67283e-11 1.98225e-30)
(6.04591e-06 -1.17412e-11 -1.98698e-30)
(6.04567e-06 1.1201e-11 -1.96699e-30)
(6.04586e-06 -6.89701e-12 1.97264e-30)
(6.04572e-06 5.50836e-12 -1.09464e-32)
(6.04582e-06 -4.06133e-12 -1.99415e-30)
(6.04575e-06 3.06516e-12 1.98988e-30)
(6.0458e-06 -2.38227e-12 4.41728e-42)
(6.04577e-06 2.04017e-12 3.58036e-33)
(6.04579e-06 -1.12465e-12 1.98932e-30)
(6.04578e-06 1.7642e-12 -4.4277e-42)
(4.31236e-06 3.08e-09 0)
(4.34677e-06 2.93034e-09 -9.83776e-30)
(4.35492e-06 3.68108e-10 -1.97661e-30)
(4.35475e-06 2.30533e-10 -8.15294e-31)
(4.35666e-06 -4.80425e-11 0)
(4.35547e-06 5.1513e-11 0)
(4.35639e-06 -3.53825e-11 2.08569e-30)
(4.35571e-06 2.55827e-11 4.40965e-42)
(4.35621e-06 -1.99292e-11 -3.88145e-45)
(4.35583e-06 1.31734e-11 1.71931e-44)
(4.3561e-06 -9.35338e-12 -8.80626e-42)
(4.35591e-06 8.31523e-12 1.99861e-30)
(4.35606e-06 -5.4251e-12 -8.82034e-42)
(4.35596e-06 4.24981e-12 0)
(4.35603e-06 -3.15335e-12 1.12656e-48)
(4.35598e-06 2.37241e-12 -1.98477e-30)
(4.35602e-06 -1.85377e-12 -3.35892e-33)
(4.35599e-06 1.55733e-12 -4.40775e-42)
(4.35601e-06 -9.94471e-13 -1.98531e-30)
(4.35601e-06 1.26593e-12 -4.4277e-42)
(2.60032e-06 1.33517e-09 0)
(2.62558e-06 1.17228e-09 3.0902e-29)
(2.63096e-06 1.10838e-10 -1.98305e-30)
(2.63085e-06 1.04261e-10 -1.88482e-30)
(2.63209e-06 -3.33622e-11 0)
(2.6313e-06 3.00014e-11 -1.97486e-30)
(2.63191e-06 -2.12979e-11 -8.63627e-45)
(2.63146e-06 1.546e-11 1.98016e-30)
(2.63179e-06 -1.18121e-11 1.98894e-30)
(2.63154e-06 8.0529e-12 1.98226e-30)
(2.63172e-06 -5.7971e-12 -1.28359e-32)
(2.63159e-06 4.87095e-12 -1.98369e-30)
(2.63169e-06 -3.30439e-12 -8.82043e-42)
(2.63162e-06 2.54726e-12 9.03632e-45)
(2.63167e-06 -1.89317e-12 -1.98577e-30)
(2.63163e-06 1.42588e-12 3.96849e-30)
(2.63166e-06 -1.10217e-12 -5.05663e-34)
(2.63164e-06 9.27168e-13 -1.98604e-30)
(2.63165e-06 -6.52496e-13 1.98234e-30)
(2.63165e-06 7.06105e-13 -2.69886e-33)
(8.6952e-07 3.4192e-10 -7.73898e-31)
(8.80101e-07 2.78676e-10 8.87643e-30)
(8.82079e-07 1.82577e-11 3.36597e-30)
(8.82017e-07 2.79657e-11 -1.90249e-30)
(8.82473e-07 -1.13126e-11 -1.38723e-30)
(8.82175e-07 9.42445e-12 -1.8604e-32)
(8.82403e-07 -6.7949e-12 9.1196e-33)
(8.82234e-07 4.95035e-12 -5.91325e-33)
(8.82357e-07 -3.74359e-12 1.19757e-44)
(8.82263e-07 2.59476e-12 1.37606e-30)
(8.8233e-07 -1.8651e-12 0)
(8.82284e-07 1.51497e-12 0)
(8.8232e-07 -1.06878e-12 1.32322e-33)
(8.82294e-07 8.16156e-13 0)
(8.82313e-07 -6.0976e-13 -1.37771e-30)
(8.823e-07 4.56605e-13 1.37781e-30)
(8.82309e-07 -3.59476e-13 -1.37829e-30)
(8.82303e-07 2.9437e-13 -1.37754e-30)
(8.82307e-07 -2.25566e-13 2.75635e-30)
(8.82307e-07 2.18964e-13 0)
)
;

boundaryField
{
    top
    {
        type            fixedValue;
        value           uniform (0 0 0);
    }
    bottom
    {
        type            symmetryPlane;
    }
    inlet
    {
        type            pressureInletVelocity;
        value           nonuniform List<vector> 
20
(
(2.19192e-05 0 0)
(2.17854e-05 0 0)
(2.15182e-05 0 0)
(2.11193e-05 0 0)
(2.05911e-05 0 0)
(1.99368e-05 0 0)
(1.91601e-05 0 0)
(1.82657e-05 0 0)
(1.72588e-05 0 0)
(1.61454e-05 0 0)
(1.49321e-05 0 0)
(1.36261e-05 0 0)
(1.22351e-05 0 0)
(1.07675e-05 0 0)
(9.23187e-06 0 0)
(7.63751e-06 0 0)
(5.99395e-06 0 0)
(4.31107e-06 0 0)
(2.59904e-06 0 0)
(8.68627e-07 0 0)
)
;
    }
    outlet
    {
        type            inletOutlet;
        inletValue      uniform (1 0 0);
        value           nonuniform List<vector> 
20
(
(2.18508e-05 9.53846e-14 -2.33902e-30)
(2.17189e-05 3.0658e-13 -1.99403e-30)
(2.14558e-05 6.11165e-13 -5.7437e-34)
(2.10629e-05 9.24148e-13 3.98788e-30)
(2.05426e-05 1.25586e-12 7.36285e-34)
(1.98975e-05 1.56185e-12 -1.9934e-30)
(1.91314e-05 1.87698e-12 -1.89525e-33)
(1.82485e-05 2.1414e-12 3.98682e-30)
(1.72537e-05 2.3909e-12 3.98965e-30)
(1.61525e-05 2.5731e-12 8.8553e-42)
(1.49511e-05 2.70623e-12 3.99013e-30)
(1.36561e-05 2.76752e-12 -1.99189e-30)
(1.22748e-05 2.74176e-12 -8.85534e-42)
(1.08148e-05 2.64861e-12 -1.99405e-30)
(9.28418e-06 2.4432e-12 1.99405e-30)
(7.69156e-06 2.16204e-12 -1.99406e-30)
(6.04578e-06 1.7642e-12 -4.4277e-42)
(4.35601e-06 1.26593e-12 -4.4277e-42)
(2.63165e-06 7.06105e-13 -2.69886e-33)
(8.82307e-07 2.18964e-13 0)
)
;
    }
    frontAndBack
    {
        type            empty;
    }
}


// ************************************************************************* //
