/*--------------------------------*- C++ -*----------------------------------*\
| =========                 |                                                 |
| \\      /  F ield         | OpenFOAM: The Open Source CFD Toolbox           |
|  \\    /   O peration     | Version:  5.0                                   |
|   \\  /    A nd           | Web:      www.OpenFOAM.org                      |
|    \\/     M anipulation  |                                                 |
\*---------------------------------------------------------------------------*/
FoamFile
{
    version     2.0;
    format      ascii;
    class       volVectorField;
    location    "0.5";
    object      U;
}
// * * * * * * * * * * * * * * * * * * * * * * * * * * * * * * * * * * * * * //

dimensions      [0 1 -1 0 0 0 0];

internalField   nonuniform List<vector> 
50
(
(1.00858 6.07575e-07 9.70329e-28)
(1.00849 -1.40495e-06 -3.25961e-23)
(1.00877 8.755e-07 -3.263e-23)
(1.00815 -2.07819e-05 -3.2566e-23)
(1.0102 -6.76221e-05 -4.75432e-25)
(1.00739 -0.000999391 6.64654e-23)
(1.06018 0.00117025 8.36016e-23)
(1.0625 -0.000127805 -4.062e-23)
(1.06398 2.07282e-05 -4.62199e-25)
(1.06563 -0.00506594 2.01632e-23)
(0.927891 2.03615e-06 -7.17374e-37)
(0.927806 -4.57456e-06 2.82246e-23)
(0.928068 4.31539e-06 4.0959e-27)
(0.927472 -5.78568e-05 -2.84379e-23)
(0.928844 -0.000140159 -2.82116e-23)
(0.926317 -0.00420679 1.64419e-23)
(0.908375 -0.00536533 5.31316e-23)
(0.906444 -0.000752784 7.21046e-23)
(0.906767 -0.00012563 -4.6987e-25)
(0.906399 0.000741983 -9.56698e-23)
(0.766519 3.21581e-06 -2.76041e-23)
(0.766446 -6.99329e-06 -7.28294e-26)
(0.766666 9.14957e-06 2.82325e-23)
(0.766146 -6.77671e-05 -5.63687e-23)
(0.766964 -6.59188e-05 -5.63203e-23)
(0.764959 -0.00252141 2.65177e-23)
(0.751841 -0.00292384 3.07966e-23)
(0.74911 -0.000459434 2.97412e-23)
(0.749125 -0.000106594 1.60465e-25)
(0.748372 4.70292e-05 -3.19463e-23)
(0.524461 2.93798e-06 5.52957e-23)
(0.524408 -6.19937e-06 2.81427e-23)
(0.524564 9.64558e-06 -5.64634e-23)
(0.524187 -4.59706e-05 -2.79453e-23)
(0.524664 8.18271e-06 5.72585e-23)
(0.523368 -0.000774452 6.58587e-23)
(0.515001 -0.000899907 3.8989e-23)
(0.512619 -0.000159704 1.81035e-24)
(0.512554 -5.3683e-05 -2.75844e-23)
(0.511883 -0.00015975 -2.7996e-24)
(0.201716 1.09395e-06 3.97192e-23)
(0.201694 -2.2796e-06 2.01063e-23)
(0.201759 3.75801e-06 -6.03578e-23)
(0.201601 -1.46811e-05 -2.00913e-23)
(0.201792 1.01577e-05 4.02453e-23)
(0.201341 -0.00014293 3.81382e-23)
(0.198217 -0.000177967 1.98308e-23)
(0.197145 -3.29781e-05 -4.14044e-25)
(0.19713 -1.379e-05 0)
(0.196816 -5.55241e-05 0)
)
;

boundaryField
{
    top
    {
        type            fixedValue;
        value           uniform (0 0 0);
    }
    bottom
    {
        type            symmetryPlane;
    }
    inlet
    {
        type            pressureInletVelocity;
        value           nonuniform List<vector> 5((1.00857 0 0) (0.927882 0 0) (0.76651 0 0) (0.524452 0 0) (0.20171 0 0));
    }
    outlet
    {
        type            inletOutlet;
        inletValue      uniform (1 0 0);
        value           nonuniform List<vector> 5((1.06563 -0.00506594 2.01632e-23) (0.906399 0.000741983 -9.56698e-23) (0.748372 4.70292e-05 -3.19463e-23) (0.511883 -0.00015975 -2.7996e-24) (0.196816 -5.55241e-05 0));
    }
    frontAndBack
    {
        type            empty;
    }
}


// ************************************************************************* //
