/*--------------------------------*- C++ -*----------------------------------*\
| =========                 |                                                 |
| \\      /  F ield         | OpenFOAM: The Open Source CFD Toolbox           |
|  \\    /   O peration     | Version:  5.0                                   |
|   \\  /    A nd           | Web:      www.OpenFOAM.org                      |
|    \\/     M anipulation  |                                                 |
\*---------------------------------------------------------------------------*/
FoamFile
{
    version     2.0;
    format      ascii;
    class       volVectorField;
    location    "421";
    object      U;
}
// * * * * * * * * * * * * * * * * * * * * * * * * * * * * * * * * * * * * * //

dimensions      [0 1 -1 0 0 0 0];

internalField   nonuniform List<vector> 
1568
(
(5.66331e-17 -1.95296e-16 0)
(6.26943e-16 -4.47033e-16 0)
(1.67809e-15 -6.65614e-16 0)
(3.13683e-15 -8.24684e-16 0)
(4.86101e-15 -9.53197e-16 0)
(6.82843e-15 -1.07072e-15 0)
(8.99587e-15 -1.15803e-15 0)
(1.13111e-14 -1.2258e-15 0)
(1.37416e-14 -1.2769e-15 0)
(1.62536e-14 -1.30967e-15 0)
(1.88127e-14 -1.32642e-15 0)
(2.1389e-14 -1.32826e-15 0)
(2.39553e-14 -1.31617e-15 0)
(2.64852e-14 -1.29109e-15 0)
(2.89543e-14 -1.25406e-15 0)
(3.13403e-14 -1.20575e-15 0)
(3.36224e-14 -1.14718e-15 0)
(3.57815e-14 -1.07921e-15 0)
(3.78002e-14 -1.0027e-15 0)
(3.96628e-14 -9.18461e-16 0)
(4.13552e-14 -8.27347e-16 0)
(4.28655e-14 -7.29924e-16 0)
(4.41836e-14 -6.25e-16 0)
(4.52902e-14 -4.96156e-16 0)
(4.61869e-14 -3.58954e-16 0)
(4.68759e-14 -2.35939e-16 0)
(4.73506e-14 -1.19144e-16 0)
(4.75864e-14 -3.19137e-17 0)
(4.7588e-14 3.0785e-17 0)
(4.73555e-14 1.17555e-16 0)
(4.68841e-14 2.34249e-16 0)
(4.61981e-14 3.5696e-16 0)
(4.53041e-14 4.94272e-16 0)
(4.42004e-14 6.23534e-16 0)
(4.2885e-14 7.28598e-16 0)
(4.13774e-14 8.25989e-16 0)
(3.96874e-14 9.17331e-16 0)
(3.7827e-14 1.00156e-15 0)
(3.58103e-14 1.0783e-15 0)
(3.36529e-14 1.14638e-15 0)
(3.13722e-14 1.20507e-15 0)
(2.89875e-14 1.25337e-15 0)
(2.65194e-14 1.29065e-15 0)
(2.39903e-14 1.31586e-15 0)
(2.14245e-14 1.3281e-15 0)
(1.88481e-14 1.32625e-15 0)
(1.62893e-14 1.30942e-15 0)
(1.37784e-14 1.27648e-15 0)
(1.13474e-14 1.22635e-15 0)
(9.03135e-15 1.157e-15 0)
(6.86898e-15 1.06745e-15 0)
(4.90215e-15 9.56232e-16 0)
(3.17503e-15 8.19371e-16 0)
(1.72916e-15 6.55635e-16 0)
(6.83462e-16 4.40443e-16 0)
(8.95791e-17 1.8285e-16 0)
(1.1904e-17 -5.28643e-16 0)
(6.21623e-16 -1.22259e-15 0)
(1.53582e-15 -1.85111e-15 0)
(2.83966e-15 -2.33295e-15 0)
(4.4454e-15 -2.73477e-15 0)
(6.26923e-15 -3.05657e-15 0)
(8.27479e-15 -3.31343e-15 0)
(1.04309e-14 -3.5121e-15 0)
(1.26944e-14 -3.65669e-15 0)
(1.50315e-14 -3.75146e-15 0)
(1.74136e-14 -3.79957e-15 0)
(1.98135e-14 -3.80506e-15 0)
(2.22028e-14 -3.77059e-15 0)
(2.45575e-14 -3.69859e-15 0)
(2.68561e-14 -3.59193e-15 0)
(2.90768e-14 -3.45359e-15 0)
(3.12004e-14 -3.28561e-15 0)
(3.32094e-14 -3.09068e-15 0)
(3.50876e-14 -2.87109e-15 0)
(3.682e-14 -2.62954e-15 0)
(3.83935e-14 -2.36808e-15 0)
(3.9796e-14 -2.08953e-15 0)
(4.10175e-14 -1.79673e-15 0)
(4.20502e-14 -1.49333e-15 0)
(4.28914e-14 -1.19386e-15 0)
(4.35334e-14 -8.84824e-16 0)
(4.39703e-14 -5.48116e-16 0)
(4.41895e-14 -1.8622e-16 0)
(4.41911e-14 1.8146e-16 0)
(4.39748e-14 5.4369e-16 0)
(4.35404e-14 8.80773e-16 0)
(4.29009e-14 1.18997e-15 0)
(4.20624e-14 1.48922e-15 0)
(4.10324e-14 1.7927e-15 0)
(3.98132e-14 2.08568e-15 0)
(3.84128e-14 2.36449e-15 0)
(3.68414e-14 2.62634e-15 0)
(3.5111e-14 2.86814e-15 0)
(3.32343e-14 3.0881e-15 0)
(3.12269e-14 3.28342e-15 0)
(2.91045e-14 3.45182e-15 0)
(2.68846e-14 3.59059e-15 0)
(2.45867e-14 3.69769e-15 0)
(2.22321e-14 3.76984e-15 0)
(1.98429e-14 3.80485e-15 0)
(1.74437e-14 3.79971e-15 0)
(1.50607e-14 3.75153e-15 0)
(1.27219e-14 3.65664e-15 0)
(1.04582e-14 3.51196e-15 0)
(8.30321e-15 3.31355e-15 0)
(6.29223e-15 3.05539e-15 0)
(4.46545e-15 2.73047e-15 0)
(2.86559e-15 2.33527e-15 0)
(1.54596e-15 1.84831e-15 0)
(6.1619e-16 1.24402e-15 0)
(2.55155e-17 5.20673e-16 0)
(3.63474e-18 -8.07479e-16 0)
(5.0235e-16 -1.95221e-15 0)
(1.3283e-15 -2.9436e-15 0)
(2.53544e-15 -3.73787e-15 0)
(3.98824e-15 -4.38496e-15 0)
(5.66955e-15 -4.91389e-15 0)
(7.52753e-15 -5.33049e-15 0)
(9.51922e-15 -5.65209e-15 0)
(1.16137e-14 -5.88608e-15 0)
(1.37804e-14 -6.03873e-15 0)
(1.59883e-14 -6.11638e-15 0)
(1.82106e-14 -6.12467e-15 0)
(2.04244e-14 -6.06845e-15 0)
(2.26067e-14 -5.95204e-15 0)
(2.47355e-14 -5.78029e-15 0)
(2.67921e-14 -5.55698e-15 0)
(2.87588e-14 -5.28635e-15 0)
(3.06189e-14 -4.97232e-15 0)
(3.23574e-14 -4.61883e-15 0)
(3.3961e-14 -4.22957e-15 0)
(3.54176e-14 -3.8085e-15 0)
(3.67162e-14 -3.35923e-15 0)
(3.78477e-14 -2.88582e-15 0)
(3.88056e-14 -2.39358e-15 0)
(3.95818e-14 -1.8893e-15 0)
(4.01667e-14 -1.3705e-15 0)
(4.05579e-14 -8.32646e-16 0)
(4.07552e-14 -2.8102e-16 0)
(4.07563e-14 2.74226e-16 0)
(4.05613e-14 8.25956e-16 0)
(4.01726e-14 1.3642e-15 0)
(3.95902e-14 1.88317e-15 0)
(3.88161e-14 2.38779e-15 0)
(3.78603e-14 2.88015e-15 0)
(3.67309e-14 3.35401e-15 0)
(3.54343e-14 3.80346e-15 0)
(3.39794e-14 4.22516e-15 0)
(3.23773e-14 4.61473e-15 0)
(3.06403e-14 4.96878e-15 0)
(2.87814e-14 5.28332e-15 0)
(2.68156e-14 5.5545e-15 0)
(2.47599e-14 5.7783e-15 0)
(2.26316e-14 5.95079e-15 0)
(2.04498e-14 6.06758e-15 0)
(1.82362e-14 6.12447e-15 0)
(1.6013e-14 6.11666e-15 0)
(1.38047e-14 6.03914e-15 0)
(1.16382e-14 5.88674e-15 0)
(9.54241e-15 5.65347e-15 0)
(7.54766e-15 5.33111e-15 0)
(5.68839e-15 4.91294e-15 0)
(4.00877e-15 4.38812e-15 0)
(2.5439e-15 3.73858e-15 0)
(1.33774e-15 2.94563e-15 0)
(5.10888e-16 1.96894e-15 0)
(9.06633e-18 8.00285e-16 0)
(1.47427e-18 -1.02234e-15 0)
(4.40284e-16 -2.58816e-15 0)
(1.1674e-15 -3.90553e-15 0)
(2.24068e-15 -5.00008e-15 0)
(3.56995e-15 -5.88574e-15 0)
(5.09903e-15 -6.60295e-15 0)
(6.79542e-15 -7.1741e-15 0)
(8.62222e-15 -7.61259e-15 0)
(1.05467e-14 -7.92959e-15 0)
(1.25368e-14 -8.13646e-15 0)
(1.45665e-14 -8.24246e-15 0)
(1.66119e-14 -8.25354e-15 0)
(1.86487e-14 -8.17717e-15 0)
(2.06556e-14 -8.02024e-15 0)
(2.26142e-14 -7.7882e-15 0)
(2.45063e-14 -7.48667e-15 0)
(2.6315e-14 -7.12165e-15 0)
(2.80256e-14 -6.69811e-15 0)
(2.96244e-14 -6.22153e-15 0)
(3.10989e-14 -5.69691e-15 0)
(3.2438e-14 -5.12967e-15 0)
(3.3632e-14 -4.52483e-15 0)
(3.46724e-14 -3.8879e-15 0)
(3.55518e-14 -3.22429e-15 0)
(3.62623e-14 -2.54046e-15 0)
(3.67959e-14 -1.83667e-15 0)
(3.71509e-14 -1.11292e-15 0)
(3.73287e-14 -3.75095e-16 0)
(3.73297e-14 3.66533e-16 0)
(3.71538e-14 1.10457e-15 0)
(3.68006e-14 1.82858e-15 0)
(3.62688e-14 2.53265e-15 0)
(3.55602e-14 3.21671e-15 0)
(3.46826e-14 3.88069e-15 0)
(3.36437e-14 4.51802e-15 0)
(3.24511e-14 5.12345e-15 0)
(3.11135e-14 5.69104e-15 0)
(2.96403e-14 6.21644e-15 0)
(2.80425e-14 6.69363e-15 0)
(2.63329e-14 7.11785e-15 0)
(2.45251e-14 7.48368e-15 0)
(2.26336e-14 7.78599e-15 0)
(2.06754e-14 8.01865e-15 0)
(1.86684e-14 8.17673e-15 0)
(1.66318e-14 8.2535e-15 0)
(1.45866e-14 8.24298e-15 0)
(1.2556e-14 8.13827e-15 0)
(1.05649e-14 7.93157e-15 0)
(8.6392e-15 7.61416e-15 0)
(6.81091e-15 7.17726e-15 0)
(5.11348e-15 6.60727e-15 0)
(3.57889e-15 5.88882e-15 0)
(2.24997e-15 5.00222e-15 0)
(1.17395e-15 3.92e-15 0)
(4.39493e-16 2.5941e-15 0)
(6.50429e-18 1.02501e-15 0)
(6.25537e-18 -1.21794e-15 0)
(3.77317e-16 -3.1288e-15 0)
(1.02537e-15 -4.778e-15 0)
(1.98404e-15 -6.12735e-15 0)
(3.17141e-15 -7.23999e-15 0)
(4.54916e-15 -8.14076e-15 0)
(6.08482e-15 -8.85504e-15 0)
(7.74235e-15 -9.4024e-15 0)
(9.49109e-15 -9.79937e-15 0)
(1.13024e-14 -1.00587e-14 0)
(1.31515e-14 -1.01903e-14 0)
(1.5015e-14 -1.02048e-14 0)
(1.68713e-14 -1.01111e-14 0)
(1.87014e-14 -9.91665e-15 0)
(2.04873e-14 -9.62904e-15 0)
(2.22121e-14 -9.2561e-15 0)
(2.38611e-14 -8.80413e-15 0)
(2.54206e-14 -8.28004e-15 0)
(2.68777e-14 -7.69029e-15 0)
(2.82214e-14 -7.04164e-15 0)
(2.94416e-14 -6.34008e-15 0)
(3.05292e-14 -5.59235e-15 0)
(3.14764e-14 -4.8047e-15 0)
(3.2276e-14 -3.98382e-15 0)
(3.29213e-14 -3.13534e-15 0)
(3.34067e-14 -2.26303e-15 0)
(3.37302e-14 -1.36936e-15 0)
(3.38922e-14 -4.61349e-16 0)
(3.38929e-14 4.51603e-16 0)
(3.37321e-14 1.3597e-15 0)
(3.341e-14 2.25353e-15 0)
(3.29261e-14 3.12623e-15 0)
(3.22821e-14 3.975e-15 0)
(3.14836e-14 4.79631e-15 0)
(3.05377e-14 5.58431e-15 0)
(2.94512e-14 6.33269e-15 0)
(2.82321e-14 7.03493e-15 0)
(2.68893e-14 7.6843e-15 0)
(2.54329e-14 8.27485e-15 0)
(2.38742e-14 8.79983e-15 0)
(2.22257e-14 9.25267e-15 0)
(2.05013e-14 9.62659e-15 0)
(1.87159e-14 9.91511e-15 0)
(1.68859e-14 1.01104e-14 0)
(1.50292e-14 1.02054e-14 0)
(1.31657e-14 1.01917e-14 0)
(1.13159e-14 1.00606e-14 0)
(9.50329e-15 9.80248e-15 0)
(7.75477e-15 9.40659e-15 0)
(6.09581e-15 8.85959e-15 0)
(4.55595e-15 8.14584e-15 0)
(3.17739e-15 7.24747e-15 0)
(1.99097e-15 6.13825e-15 0)
(1.02545e-15 4.78416e-15 0)
(3.7954e-16 3.14408e-15 0)
(4.33876e-18 1.21972e-15 0)
(1.82048e-18 -1.38828e-15 0)
(3.29757e-16 -3.61318e-15 0)
(8.95312e-16 -5.53875e-15 0)
(1.7418e-15 -7.13696e-15 0)
(2.79277e-15 -8.45387e-15 0)
(4.02123e-15 -9.52159e-15 0)
(5.39388e-15 -1.03699e-14 0)
(6.87898e-15 -1.10204e-14 0)
(8.44892e-15 -1.14918e-14 0)
(1.00776e-14 -1.17997e-14 0)
(1.17419e-14 -1.19569e-14 0)
(1.34203e-14 -1.19755e-14 0)
(1.50931e-14 -1.18658e-14 0)
(1.67426e-14 -1.16377e-14 0)
(1.83522e-14 -1.13003e-14 0)
(1.99071e-14 -1.08621e-14 0)
(2.13936e-14 -1.03312e-14 0)
(2.27992e-14 -9.71578e-15 0)
(2.41125e-14 -9.02343e-15 0)
(2.53234e-14 -8.26163e-15 0)
(2.64228e-14 -7.43806e-15 0)
(2.74023e-14 -6.56011e-15 0)
(2.82549e-14 -5.63508e-15 0)
(2.89743e-14 -4.6702e-15 0)
(2.95546e-14 -3.67218e-15 0)
(2.99916e-14 -2.64671e-15 0)
(3.02834e-14 -1.59953e-15 0)
(3.04295e-14 -5.38319e-16 0)
(3.04299e-14 5.27658e-16 0)
(3.02846e-14 1.58908e-15 0)
(2.99937e-14 2.63657e-15 0)
(2.95576e-14 3.66231e-15 0)
(2.89781e-14 4.6607e-15 0)
(2.82596e-14 5.62608e-15 0)
(2.74078e-14 6.5517e-15 0)
(2.64289e-14 7.43025e-15 0)
(2.53302e-14 8.25459e-15 0)
(2.41198e-14 9.01709e-15 0)
(2.28071e-14 9.71031e-15 0)
(2.1402e-14 1.03267e-14 0)
(1.99158e-14 1.08585e-14 0)
(1.83612e-14 1.12978e-14 0)
(1.67516e-14 1.16363e-14 0)
(1.51022e-14 1.18653e-14 0)
(1.34294e-14 1.19761e-14 0)
(1.17506e-14 1.19587e-14 0)
(1.00859e-14 1.18025e-14 0)
(8.45695e-15 1.14959e-14 0)
(6.8854e-15 1.10255e-14 0)
(5.39863e-15 1.03756e-14 0)
(4.02743e-15 9.52901e-15 0)
(2.79691e-15 8.46225e-15 0)
(1.73999e-15 7.1467e-15 0)
(8.98072e-16 5.54988e-15 0)
(3.3249e-16 3.62666e-15 0)
(3.26194e-18 1.38942e-15 0)
(1.6095e-18 -1.53331e-15 0)
(2.8609e-16 -4.03555e-15 0)
(7.75974e-16 -6.20637e-15 0)
(1.51228e-15 -8.02321e-15 0)
(2.43313e-15 -9.52339e-15 0)
(3.5109e-15 -1.07441e-14 0)
(4.71948e-15 -1.17152e-14 0)
(6.03132e-15 -1.24605e-14 0)
(7.42013e-15 -1.30009e-14 0)
(8.86295e-15 -1.33542e-14 0)
(1.0339e-14 -1.35354e-14 0)
(1.18287e-14 -1.35584e-14 0)
(1.33141e-14 -1.34354e-14 0)
(1.47792e-14 -1.31777e-14 0)
(1.62093e-14 -1.27957e-14 0)
(1.7591e-14 -1.22992e-14 0)
(1.89118e-14 -1.16978e-14 0)
(2.01606e-14 -1.10004e-14 0)
(2.13275e-14 -1.02159e-14 0)
(2.24032e-14 -9.35294e-15 0)
(2.33795e-14 -8.41998e-15 0)
(2.42493e-14 -7.42533e-15 0)
(2.50062e-14 -6.37719e-15 0)
(2.56444e-14 -5.2836e-15 0)
(2.61594e-14 -4.15243e-15 0)
(2.65475e-14 -2.99076e-15 0)
(2.68067e-14 -1.80622e-15 0)
(2.69366e-14 -6.07349e-16 0)
(2.69368e-14 5.96426e-16 0)
(2.68074e-14 1.79541e-15 0)
(2.65485e-14 2.98017e-15 0)
(2.61609e-14 4.14219e-15 0)
(2.56463e-14 5.27381e-15 0)
(2.50085e-14 6.36784e-15 0)
(2.4252e-14 7.41657e-15 0)
(2.33825e-14 8.41187e-15 0)
(2.24065e-14 9.34556e-15 0)
(2.1331e-14 1.02094e-14 0)
(2.01644e-14 1.09948e-14 0)
(1.89158e-14 1.16932e-14 0)
(1.75951e-14 1.22956e-14 0)
(1.62136e-14 1.27932e-14 0)
(1.47836e-14 1.31763e-14 0)
(1.33184e-14 1.34353e-14 0)
(1.18329e-14 1.35595e-14 0)
(1.03432e-14 1.35377e-14 0)
(8.86676e-15 1.33577e-14 0)
(7.42296e-15 1.30057e-14 0)
(6.03424e-15 1.24663e-14 0)
(4.72241e-15 1.17226e-14 0)
(3.51074e-15 1.07528e-14 0)
(2.43294e-15 9.5325e-15 0)
(1.51501e-15 8.03358e-15 0)
(7.74877e-16 6.21867e-15 0)
(2.83656e-16 4.04488e-15 0)
(3.01589e-18 1.53666e-15 0)
(2.30234e-18 -1.65948e-15 0)
(2.43458e-16 -4.39591e-15 0)
(6.62795e-16 -6.78391e-15 0)
(1.29393e-15 -8.78959e-15 0)
(2.0857e-15 -1.04535e-14 0)
(3.01554e-15 -1.18107e-14 0)
(4.06115e-15 -1.28913e-14 0)
(5.19802e-15 -1.3722e-14 0)
(6.40379e-15 -1.43252e-14 0)
(7.65853e-15 -1.47199e-14 0)
(8.94344e-15 -1.49235e-14 0)
(1.02409e-14 -1.49515e-14 0)
(1.15354e-14 -1.48173e-14 0)
(1.28128e-14 -1.45338e-14 0)
(1.40599e-14 -1.41127e-14 0)
(1.52649e-14 -1.35651e-14 0)
(1.64169e-14 -1.29015e-14 0)
(1.75062e-14 -1.21319e-14 0)
(1.85238e-14 -1.12662e-14 0)
(1.94619e-14 -1.03139e-14 0)
(2.03132e-14 -9.28441e-15 0)
(2.10714e-14 -8.18677e-15 0)
(2.1731e-14 -7.03019e-15 0)
(2.22871e-14 -5.82343e-15 0)
(2.27359e-14 -4.57518e-15 0)
(2.30743e-14 -3.29399e-15 0)
(2.33006e-14 -1.98854e-15 0)
(2.34139e-14 -6.68126e-16 0)
(2.34139e-14 6.5736e-16 0)
(2.33006e-14 1.97784e-15 0)
(2.30744e-14 3.28348e-15 0)
(2.27359e-14 4.56496e-15 0)
(2.22872e-14 5.81361e-15 0)
(2.17311e-14 7.02085e-15 0)
(2.10716e-14 8.17802e-15 0)
(2.03133e-14 9.27632e-15 0)
(1.94621e-14 1.03066e-14 0)
(1.85241e-14 1.12597e-14 0)
(1.75065e-14 1.21264e-14 0)
(1.64172e-14 1.28969e-14 0)
(1.52652e-14 1.35616e-14 0)
(1.40602e-14 1.41104e-14 0)
(1.28131e-14 1.45327e-14 0)
(1.15357e-14 1.48174e-14 0)
(1.0241e-14 1.49528e-14 0)
(8.94335e-15 1.49262e-14 0)
(7.65851e-15 1.47238e-14 0)
(6.40384e-15 1.43303e-14 0)
(5.19726e-15 1.37287e-14 0)
(4.05977e-15 1.2899e-14 0)
(3.01558e-15 1.18194e-14 0)
(2.0851e-15 1.04642e-14 0)
(1.29079e-15 8.80025e-15 0)
(6.62417e-16 6.79415e-15 0)
(2.44221e-16 4.40638e-15 0)
(2.04755e-18 1.66252e-15 0)
(1.42173e-18 -1.76645e-15 0)
(2.03332e-16 -4.70167e-15 0)
(5.54216e-16 -7.27334e-15 0)
(1.08359e-15 -9.442e-15 0)
(1.74924e-15 -1.12466e-14 0)
(2.53292e-15 -1.27219e-14 0)
(3.41591e-15 -1.38989e-14 0)
(4.37763e-15 -1.48048e-14 0)
(5.39955e-15 -1.54631e-14 0)
(6.46403e-15 -1.58948e-14 0)
(7.55492e-15 -1.6119e-14 0)
(8.65757e-15 -1.61518e-14 0)
(9.75829e-15 -1.60085e-14 0)
(1.08447e-14 -1.57031e-14 0)
(1.19057e-14 -1.52487e-14 0)
(1.2931e-14 -1.4657e-14 0)
(1.39113e-14 -1.39398e-14 0)
(1.48382e-14 -1.31079e-14 0)
(1.57041e-14 -1.21722e-14 0)
(1.65022e-14 -1.11427e-14 0)
(1.72264e-14 -1.00298e-14 0)
(1.78713e-14 -8.84336e-15 0)
(1.84322e-14 -7.5931e-15 0)
(1.89052e-14 -6.28868e-15 0)
(1.92869e-14 -4.93963e-15 0)
(1.95748e-14 -3.55545e-15 0)
(1.97674e-14 -2.14574e-15 0)
(1.98638e-14 -7.20479e-16 0)
(1.98636e-14 7.10027e-16 0)
(1.97669e-14 2.13545e-15 0)
(1.95739e-14 3.5454e-15 0)
(1.92857e-14 4.92988e-15 0)
(1.89038e-14 6.27933e-15 0)
(1.84305e-14 7.58423e-15 0)
(1.78693e-14 8.83505e-15 0)
(1.72242e-14 1.00222e-14 0)
(1.64997e-14 1.11359e-14 0)
(1.57014e-14 1.21661e-14 0)
(1.48354e-14 1.31027e-14 0)
(1.39083e-14 1.39355e-14 0)
(1.29279e-14 1.46538e-14 0)
(1.19026e-14 1.52466e-14 0)
(1.08415e-14 1.57022e-14 0)
(9.75506e-15 1.60087e-14 0)
(8.65438e-15 1.61532e-14 0)
(7.55184e-15 1.61218e-14 0)
(6.4608e-15 1.5899e-14 0)
(5.39621e-15 1.54684e-14 0)
(4.37478e-15 1.48113e-14 0)
(3.41336e-15 1.39069e-14 0)
(2.52948e-15 1.2731e-14 0)
(1.74634e-15 1.12559e-14 0)
(1.08322e-15 9.45223e-15 0)
(5.52737e-16 7.28384e-15 0)
(2.01764e-16 4.71023e-15 0)
(1.92502e-18 1.76894e-15 0)
(1.13363e-18 -1.85411e-15 0)
(1.64721e-16 -4.95375e-15 0)
(4.49303e-16 -7.67731e-15 0)
(8.79628e-16 -9.98153e-15 0)
(1.42152e-15 -1.19042e-14 0)
(2.06044e-15 -1.3479e-14 0)
(2.78169e-15 -1.47375e-14 0)
(3.56863e-15 -1.57071e-14 0)
(4.40574e-15 -1.64126e-14 0)
(5.27848e-15 -1.68764e-14 0)
(6.17376e-15 -1.71184e-14 0)
(7.07918e-15 -1.71557e-14 0)
(7.9834e-15 -1.70052e-14 0)
(8.87616e-15 -1.66821e-14 0)
(9.74829e-15 -1.61998e-14 0)
(1.05912e-14 -1.55714e-14 0)
(1.13971e-14 -1.48093e-14 0)
(1.21592e-14 -1.39253e-14 0)
(1.28711e-14 -1.29308e-14 0)
(1.35272e-14 -1.18367e-14 0)
(1.41224e-14 -1.06539e-14 0)
(1.46525e-14 -9.39297e-15 0)
(1.51135e-14 -8.06425e-15 0)
(1.55021e-14 -6.67813e-15 0)
(1.58158e-14 -5.2448e-15 0)
(1.60524e-14 -3.77444e-15 0)
(1.62107e-14 -2.27737e-15 0)
(1.62899e-14 -7.6415e-16 0)
(1.62896e-14 7.54499e-16 0)
(1.62098e-14 2.2678e-15 0)
(1.60509e-14 3.76503e-15 0)
(1.58136e-14 5.2357e-15 0)
(1.54994e-14 6.66941e-15 0)
(1.51102e-14 8.05599e-15 0)
(1.46487e-14 9.38523e-15 0)
(1.41182e-14 1.06468e-14 0)
(1.35225e-14 1.18303e-14 0)
(1.2866e-14 1.29251e-14 0)
(1.21538e-14 1.39205e-14 0)
(1.13915e-14 1.48055e-14 0)
(1.05853e-14 1.55686e-14 0)
(9.74231e-15 1.6198e-14 0)
(8.8701e-15 1.66814e-14 0)
(7.97734e-15 1.70057e-14 0)
(7.07322e-15 1.71574e-14 0)
(6.16788e-15 1.71212e-14 0)
(5.27273e-15 1.68805e-14 0)
(4.40049e-15 1.64181e-14 0)
(3.56364e-15 1.57136e-14 0)
(2.77683e-15 1.47449e-14 0)
(2.05691e-15 1.34876e-14 0)
(1.41869e-15 1.1914e-14 0)
(8.76218e-16 9.99099e-15 0)
(4.47992e-16 7.68587e-15 0)
(1.64665e-16 4.96216e-15 0)
(1.31361e-18 1.85627e-15 0)
(8.83297e-19 -1.92365e-15 0)
(1.27331e-16 -5.15403e-15 0)
(3.47418e-16 -7.99841e-15 0)
(6.80382e-16 -1.04112e-14 0)
(1.10033e-15 -1.24285e-14 0)
(1.59632e-15 -1.40835e-14 0)
(2.15675e-15 -1.54077e-14 0)
(2.76906e-15 -1.64292e-14 0)
(3.42086e-15 -1.71734e-14 0)
(4.10076e-15 -1.76634e-14 0)
(4.79916e-15 -1.79204e-14 0)
(5.50534e-15 -1.7962e-14 0)
(6.21092e-15 -1.78057e-14 0)
(6.90782e-15 -1.74685e-14 0)
(7.58895e-15 -1.6964e-14 0)
(8.24717e-15 -1.63062e-14 0)
(8.87653e-15 -1.5508e-14 0)
(9.47162e-15 -1.45821e-14 0)
(1.00275e-14 -1.35402e-14 0)
(1.05398e-14 -1.23942e-14 0)
(1.10046e-14 -1.11552e-14 0)
(1.14184e-14 -9.83441e-15 0)
(1.17782e-14 -8.44271e-15 0)
(1.20816e-14 -6.99096e-15 0)
(1.23264e-14 -5.48987e-15 0)
(1.25112e-14 -3.95031e-15 0)
(1.26347e-14 -2.38305e-15 0)
(1.26964e-14 -7.99119e-16 0)
(1.26959e-14 7.90449e-16 0)
(1.26333e-14 2.37446e-15 0)
(1.2509e-14 3.94188e-15 0)
(1.23234e-14 5.48168e-15 0)
(1.20778e-14 6.98307e-15 0)
(1.17737e-14 8.43524e-15 0)
(1.14131e-14 9.82743e-15 0)
(1.09986e-14 1.11488e-14 0)
(1.05333e-14 1.23884e-14 0)
(1.00205e-14 1.35352e-14 0)
(9.46412e-15 1.45778e-14 0)
(8.86867e-15 1.55046e-14 0)
(8.23903e-15 1.63036e-14 0)
(7.58062e-15 1.69625e-14 0)
(6.89945e-15 1.74679e-14 0)
(6.20257e-15 1.78062e-14 0)
(5.49703e-15 1.79636e-14 0)
(4.79122e-15 1.79231e-14 0)
(4.09328e-15 1.76672e-14 0)
(3.41355e-15 1.71784e-14 0)
(2.76241e-15 1.64352e-14 0)
(2.15137e-15 1.54149e-14 0)
(1.59144e-15 1.40913e-14 0)
(1.09595e-15 1.24364e-14 0)
(6.78118e-16 1.04198e-14 0)
(3.46043e-16 8.00694e-15 0)
(1.26084e-16 5.16048e-15 0)
(1.1596e-18 1.92569e-15 0)
(5.3857e-19 -1.97552e-15 0)
(9.07207e-17 -5.30351e-15 0)
(2.47468e-16 -8.23834e-15 0)
(4.84785e-16 -1.07325e-14 0)
(7.84443e-16 -1.28208e-14 0)
(1.13847e-15 -1.45364e-14 0)
(1.53878e-15 -1.59105e-14 0)
(1.97654e-15 -1.69715e-14 0)
(2.44296e-15 -1.77453e-14 0)
(2.92934e-15 -1.82554e-14 0)
(3.43019e-15 -1.8524e-14 0)
(3.9348e-15 -1.85688e-14 0)
(4.44122e-15 -1.84085e-14 0)
(4.94019e-15 -1.80606e-14 0)
(5.42844e-15 -1.75395e-14 0)
(5.90017e-15 -1.68593e-14 0)
(6.35117e-15 -1.6034e-14 0)
(6.77764e-15 -1.50765e-14 0)
(7.17597e-15 -1.39991e-14 0)
(7.54304e-15 -1.28138e-14 0)
(7.87604e-15 -1.15326e-14 0)
(8.17248e-15 -1.01666e-14 0)
(8.43024e-15 -8.72747e-15 0)
(8.64753e-15 -7.22626e-15 0)
(8.82283e-15 -5.67424e-15 0)
(8.95505e-15 -4.08256e-15 0)
(9.04342e-15 -2.46248e-15 0)
(9.08746e-15 -8.25248e-16 0)
(9.08694e-15 8.17706e-16 0)
(9.04185e-15 2.455e-15 0)
(8.95239e-15 4.07528e-15 0)
(8.81911e-15 5.66717e-15 0)
(8.64283e-15 7.21949e-15 0)
(8.42463e-15 8.72105e-15 0)
(8.16602e-15 1.01606e-14 0)
(7.86876e-15 1.1527e-14 0)
(7.53501e-15 1.28089e-14 0)
(7.1673e-15 1.39948e-14 0)
(6.76841e-15 1.50728e-14 0)
(6.34151e-15 1.60311e-14 0)
(5.8902e-15 1.68571e-14 0)
(5.41824e-15 1.75381e-14 0)
(4.92992e-15 1.80602e-14 0)
(4.43103e-15 1.8409e-14 0)
(3.9248e-15 1.85702e-14 0)
(3.42057e-15 1.85264e-14 0)
(2.92011e-15 1.82587e-14 0)
(2.43456e-15 1.77496e-14 0)
(1.96916e-15 1.69769e-14 0)
(1.53178e-15 1.59164e-14 0)
(1.13266e-15 1.45431e-14 0)
(7.80765e-16 1.28284e-14 0)
(4.81773e-16 1.07395e-14 0)
(2.45294e-16 8.24471e-15 0)
(9.00459e-17 5.30962e-15 0)
(5.84386e-19 1.97709e-15 0)
(2.56506e-19 -2.01004e-15 0)
(5.46887e-17 -5.40294e-15 0)
(1.49002e-16 -8.39815e-15 0)
(2.9173e-16 -1.09464e-14 0)
(4.7198e-16 -1.30823e-14 0)
(6.84835e-16 -1.48384e-14 0)
(9.2556e-16 -1.6246e-14 0)
(1.18898e-15 -1.73336e-14 0)
(1.46946e-15 -1.81273e-14 0)
(1.76181e-15 -1.86508e-14 0)
(2.06895e-15 -1.89244e-14 0)
(2.36299e-15 -1.897e-14 0)
(2.67416e-15 -1.88111e-14 0)
(2.97374e-15 -1.84564e-14 0)
(3.26743e-15 -1.7924e-14 0)
(3.55121e-15 -1.7229e-14 0)
(3.82244e-15 -1.63856e-14 0)
(4.079e-15 -1.54069e-14 0)
(4.31867e-15 -1.43058e-14 0)
(4.53947e-15 -1.30943e-14 0)
(4.73976e-15 -1.17847e-14 0)
(4.91804e-15 -1.03886e-14 0)
(5.07297e-15 -8.91767e-15 0)
(5.20352e-15 -7.38342e-15 0)
(5.3088e-15 -5.79735e-15 0)
(5.38816e-15 -4.1708e-15 0)
(5.44112e-15 -2.51534e-15 0)
(5.46736e-15 -8.42446e-16 0)
(5.46672e-15 8.36255e-16 0)
(5.43927e-15 2.50919e-15 0)
(5.38514e-15 4.16476e-15 0)
(5.30461e-15 5.79148e-15 0)
(5.1982e-15 7.37783e-15 0)
(5.06656e-15 8.91236e-15 0)
(4.91059e-15 1.03837e-14 0)
(4.73142e-15 1.17801e-14 0)
(4.53031e-15 1.30902e-14 0)
(4.30875e-15 1.43022e-14 0)
(4.06847e-15 1.54039e-14 0)
(3.81143e-15 1.63832e-14 0)
(3.53983e-15 1.72273e-14 0)
(3.25582e-15 1.7923e-14 0)
(2.96207e-15 1.84561e-14 0)
(2.66259e-15 1.88115e-14 0)
(2.35159e-15 1.89712e-14 0)
(2.0581e-15 1.89264e-14 0)
(1.75164e-15 1.86536e-14 0)
(1.46001e-15 1.81309e-14 0)
(1.18023e-15 1.73379e-14 0)
(9.18514e-16 1.62511e-14 0)
(6.79401e-16 1.48441e-14 0)
(4.66577e-16 1.30878e-14 0)
(2.88142e-16 1.09524e-14 0)
(1.47913e-16 8.40414e-15 0)
(5.37353e-17 5.40745e-15 0)
(5.46721e-19 2.01142e-15 0)
(1.12672e-19 -2.02741e-15 0)
(1.89105e-17 -5.45313e-15 0)
(5.13595e-17 -8.47855e-15 0)
(1.00119e-16 -1.1054e-14 0)
(1.61514e-16 -1.32138e-14 0)
(2.33761e-16 -1.49901e-14 0)
(3.1517e-16 -1.64143e-14 0)
(4.04251e-16 -1.75149e-14 0)
(4.98581e-16 -1.83186e-14 0)
(5.94587e-16 -1.88494e-14 0)
(6.9866e-16 -1.91291e-14 0)
(7.99795e-16 -1.91803e-14 0)
(9.12193e-16 -1.90146e-14 0)
(1.00739e-15 -1.86543e-14 0)
(1.10532e-15 -1.8116e-14 0)
(1.20047e-15 -1.7414e-14 0)
(1.29131e-15 -1.65617e-14 0)
(1.37727e-15 -1.55725e-14 0)
(1.45757e-15 -1.44594e-14 0)
(1.53152e-15 -1.32348e-14 0)
(1.59852e-15 -1.19109e-14 0)
(1.65807e-15 -1.04997e-14 0)
(1.70979e-15 -9.01284e-15 0)
(1.75328e-15 -7.462e-15 0)
(1.78826e-15 -5.85876e-15 0)
(1.8145e-15 -4.21473e-15 0)
(1.83184e-15 -2.54149e-15 0)
(1.8402e-15 -8.50736e-16 0)
(1.83954e-15 8.45922e-16 0)
(1.82984e-15 2.53677e-15 0)
(1.81119e-15 4.2101e-15 0)
(1.78368e-15 5.85425e-15 0)
(1.74747e-15 7.45766e-15 0)
(1.70284e-15 9.00872e-15 0)
(1.65003e-15 1.04959e-14 0)
(1.58946e-15 1.19075e-14 0)
(1.52156e-15 1.32317e-14 0)
(1.44681e-15 1.44566e-14 0)
(1.36585e-15 1.55702e-14 0)
(1.27937e-15 1.65599e-14 0)
(1.18812e-15 1.74127e-14 0)
(1.09276e-15 1.81152e-14 0)
(9.94782e-16 1.8654e-14 0)
(8.99706e-16 1.90149e-14 0)
(7.87599e-16 1.91812e-14 0)
(6.87004e-16 1.91305e-14 0)
(5.83493e-16 1.88515e-14 0)
(4.88471e-16 1.83214e-14 0)
(3.95595e-16 1.75182e-14 0)
(3.07271e-16 1.6418e-14 0)
(2.26653e-16 1.49943e-14 0)
(1.57274e-16 1.32185e-14 0)
(9.75443e-17 1.10585e-14 0)
(4.8523e-17 8.48249e-15 0)
(1.76749e-17 5.45729e-15 0)
(4.31195e-20 2.02837e-15 0)
(-2.09361e-19 -2.02785e-15 0)
(-1.65522e-17 -5.45421e-15 0)
(-4.59827e-17 -8.48001e-15 0)
(-9.10966e-17 -1.10557e-14 0)
(-1.48268e-16 -1.32155e-14 0)
(-2.16395e-16 -1.49919e-14 0)
(-2.93885e-16 -1.64161e-14 0)
(-3.78821e-16 -1.75166e-14 0)
(-4.69438e-16 -1.83202e-14 0)
(-5.621e-16 -1.88509e-14 0)
(-6.62743e-16 -1.91304e-14 0)
(-7.60959e-16 -1.91816e-14 0)
(-8.70587e-16 -1.90157e-14 0)
(-9.63301e-16 -1.86553e-14 0)
(-1.05906e-15 -1.81169e-14 0)
(-1.15232e-15 -1.74148e-14 0)
(-1.24154e-15 -1.65623e-14 0)
(-1.32614e-15 -1.5573e-14 0)
(-1.40537e-15 -1.44598e-14 0)
(-1.47851e-15 -1.3235e-14 0)
(-1.54498e-15 -1.19111e-14 0)
(-1.60426e-15 -1.04996e-14 0)
(-1.65592e-15 -9.01266e-15 0)
(-1.69964e-15 -7.4617e-15 0)
(-1.73508e-15 -5.85836e-15 0)
(-1.76202e-15 -4.21424e-15 0)
(-1.78031e-15 -2.54092e-15 0)
(-1.78984e-15 -8.50023e-16 0)
(-1.79053e-15 8.46701e-16 0)
(-1.78239e-15 2.5376e-15 0)
(-1.76548e-15 4.21099e-15 0)
(-1.73987e-15 5.85524e-15 0)
(-1.7057e-15 7.45871e-15 0)
(-1.66321e-15 9.00987e-15 0)
(-1.61265e-15 1.0497e-14 0)
(-1.55442e-15 1.19086e-14 0)
(-1.48892e-15 1.32328e-14 0)
(-1.4166e-15 1.44578e-14 0)
(-1.33808e-15 1.55714e-14 0)
(-1.25401e-15 1.6561e-14 0)
(-1.16519e-15 1.74138e-14 0)
(-1.07218e-15 1.81163e-14 0)
(-9.76453e-16 1.86551e-14 0)
(-8.83608e-16 1.90158e-14 0)
(-7.73644e-16 1.91821e-14 0)
(-6.74901e-16 1.91314e-14 0)
(-5.73312e-16 1.88522e-14 0)
(-4.79882e-16 1.83219e-14 0)
(-3.88583e-16 1.75187e-14 0)
(-3.01692e-16 1.64186e-14 0)
(-2.21975e-16 1.49947e-14 0)
(-1.54063e-16 1.32182e-14 0)
(-9.56135e-17 1.10589e-14 0)
(-4.69291e-17 8.48331e-15 0)
(-1.73407e-17 5.45695e-15 0)
(-7.95429e-20 2.02849e-15 0)
(-5.30066e-19 -2.0112e-15 0)
(-5.22962e-17 -5.40631e-15 0)
(-1.43792e-16 -8.40245e-15 0)
(-2.82855e-16 -1.09513e-14 0)
(-4.5896e-16 -1.30875e-14 0)
(-6.67901e-16 -1.48437e-14 0)
(-9.04836e-16 -1.62511e-14 0)
(-1.16429e-15 -1.73385e-14 0)
(-1.44118e-15 -1.81319e-14 0)
(-1.73019e-15 -1.86551e-14 0)
(-2.03411e-15 -1.89284e-14 0)
(-2.32519e-15 -1.89736e-14 0)
(-2.63388e-15 -1.88143e-14 0)
(-2.93108e-15 -1.84593e-14 0)
(-3.22268e-15 -1.79265e-14 0)
(-3.50465e-15 -1.72311e-14 0)
(-3.77432e-15 -1.63873e-14 0)
(-4.02958e-15 -1.54083e-14 0)
(-4.26821e-15 -1.43067e-14 0)
(-4.48824e-15 -1.30949e-14 0)
(-4.68797e-15 -1.17849e-14 0)
(-4.86595e-15 -1.03885e-14 0)
(-5.02091e-15 -8.91719e-15 0)
(-5.15167e-15 -7.38261e-15 0)
(-5.25741e-15 -5.79617e-15 0)
(-5.33746e-15 -4.16932e-15 0)
(-5.39128e-15 -2.51357e-15 0)
(-5.41863e-15 -8.40419e-16 0)
(-5.41936e-15 8.38563e-16 0)
(-5.39341e-15 2.51174e-15 0)
(-5.34092e-15 4.16755e-15 0)
(-5.26222e-15 5.79446e-15 0)
(-5.15776e-15 7.38095e-15 0)
(-5.02824e-15 8.91562e-15 0)
(-4.87448e-15 1.0387e-14 0)
(-4.69755e-15 1.17835e-14 0)
(-4.49874e-15 1.30937e-14 0)
(-4.27954e-15 1.43056e-14 0)
(-4.04164e-15 1.54073e-14 0)
(-3.78694e-15 1.63865e-14 0)
(-3.51765e-15 1.72305e-14 0)
(-3.23593e-15 1.79261e-14 0)
(-2.94439e-15 1.8459e-14 0)
(-2.64702e-15 1.88143e-14 0)
(-2.33793e-15 1.89737e-14 0)
(-2.04638e-15 1.89287e-14 0)
(-1.74186e-15 1.86555e-14 0)
(-1.45174e-15 1.81327e-14 0)
(-1.1732e-15 1.73394e-14 0)
(-9.13099e-16 1.62521e-14 0)
(-6.75653e-16 1.48451e-14 0)
(-4.63313e-16 1.30893e-14 0)
(-2.85117e-16 1.09527e-14 0)
(-1.47043e-16 8.40417e-15 0)
(-5.40557e-17 5.40832e-15 0)
(-4.85694e-19 2.0115e-15 0)
(-6.62168e-19 -1.97739e-15 0)
(-8.83915e-17 -5.30892e-15 0)
(-2.42273e-16 -8.24547e-15 0)
(-4.76315e-16 -1.07404e-14 0)
(-7.72067e-16 -1.28293e-14 0)
(-1.12232e-15 -1.45449e-14 0)
(-1.5192e-15 -1.59188e-14 0)
(-1.95331e-15 -1.69795e-14 0)
(-2.41643e-15 -1.77527e-14 0)
(-2.89976e-15 -1.82623e-14 0)
(-3.39766e-15 -1.85304e-14 0)
(-3.89964e-15 -1.85745e-14 0)
(-4.40369e-15 -1.84137e-14 0)
(-4.90044e-15 -1.80652e-14 0)
(-5.38679e-15 -1.75434e-14 0)
(-5.85684e-15 -1.68627e-14 0)
(-6.30638e-15 -1.60367e-14 0)
(-6.73163e-15 -1.50786e-14 0)
(-7.129e-15 -1.40006e-14 0)
(-7.49535e-15 -1.28148e-14 0)
(-7.82787e-15 -1.15329e-14 0)
(-8.12405e-15 -1.01665e-14 0)
(-8.38175e-15 -8.72665e-15 0)
(-8.5992e-15 -7.22496e-15 0)
(-8.77492e-15 -5.67236e-15 0)
(-8.90781e-15 -4.08023e-15 0)
(-8.99704e-15 -2.45953e-15 0)
(-9.0421e-15 -8.21929e-16 0)
(-9.04276e-15 8.21547e-16 0)
(-8.99906e-15 2.45916e-15 0)
(-8.9112e-15 4.07985e-15 0)
(-8.77967e-15 5.67196e-15 0)
(-8.60521e-15 7.22462e-15 0)
(-8.38893e-15 8.72628e-15 0)
(-8.13233e-15 1.01661e-14 0)
(-7.83719e-15 1.15326e-14 0)
(-7.50563e-15 1.28146e-14 0)
(-7.14011e-15 1.40003e-14 0)
(-6.74342e-15 1.50784e-14 0)
(-6.31872e-15 1.60365e-14 0)
(-5.86959e-15 1.68625e-14 0)
(-5.39976e-15 1.75431e-14 0)
(-4.91347e-15 1.8065e-14 0)
(-4.41658e-15 1.84134e-14 0)
(-3.91227e-15 1.85743e-14 0)
(-3.40975e-15 1.85301e-14 0)
(-2.91084e-15 1.82621e-14 0)
(-2.42684e-15 1.77523e-14 0)
(-1.96324e-15 1.69793e-14 0)
(-1.52685e-15 1.59188e-14 0)
(-1.12758e-15 1.45447e-14 0)
(-7.78262e-16 1.28291e-14 0)
(-4.81263e-16 1.0741e-14 0)
(-2.4303e-16 8.24623e-15 0)
(-8.9192e-17 5.30978e-15 0)
(-6.05951e-19 1.97745e-15 0)
(-1.10482e-18 -1.92619e-15 0)
(-1.25118e-16 -5.16167e-15 0)
(-3.42582e-16 -8.00813e-15 0)
(-6.7237e-16 -1.04221e-14 0)
(-1.08893e-15 -1.24399e-14 0)
(-1.58159e-15 -1.4095e-14 0)
(-2.139e-15 -1.54189e-14 0)
(-2.748e-15 -1.644e-14 0)
(-3.39699e-15 -1.71836e-14 0)
(-4.0744e-15 -1.76727e-14 0)
(-4.77013e-15 -1.79291e-14 0)
(-5.47398e-15 -1.79698e-14 0)
(-6.17756e-15 -1.78127e-14 0)
(-6.87251e-15 -1.74747e-14 0)
(-7.55192e-15 -1.69695e-14 0)
(-8.20865e-15 -1.63107e-14 0)
(-8.83673e-15 -1.55118e-14 0)
(-9.43074e-15 -1.4585e-14 0)
(-9.98577e-15 -1.35425e-14 0)
(-1.04974e-14 -1.23955e-14 0)
(-1.09617e-14 -1.11558e-14 0)
(-1.13753e-14 -9.83406e-15 0)
(-1.17351e-14 -8.44172e-15 0)
(-1.20387e-14 -6.98905e-15 0)
(-1.22838e-14 -5.48742e-15 0)
(-1.24691e-14 -3.94698e-15 0)
(-1.25933e-14 -2.37925e-15 0)
(-1.2656e-14 -7.94496e-16 0)
(-1.26567e-14 7.95454e-16 0)
(-1.25953e-14 2.3802e-15 0)
(-1.24723e-14 3.94792e-15 0)
(-1.22883e-14 5.48835e-15 0)
(-1.20443e-14 6.98995e-15 0)
(-1.17419e-14 8.44261e-15 0)
(-1.13831e-14 9.83485e-15 0)
(-1.09706e-14 1.11565e-14 0)
(-1.05071e-14 1.23961e-14 0)
(-9.99625e-15 1.3543e-14 0)
(-9.44188e-15 1.45853e-14 0)
(-8.8484e-15 1.55121e-14 0)
(-8.22072e-15 1.63107e-14 0)
(-7.56422e-15 1.69694e-14 0)
(-6.88487e-15 1.74743e-14 0)
(-6.18984e-15 1.78123e-14 0)
(-5.48589e-15 1.79692e-14 0)
(-4.78155e-15 1.79282e-14 0)
(-4.08552e-15 1.76716e-14 0)
(-3.40696e-15 1.71824e-14 0)
(-2.75609e-15 1.64387e-14 0)
(-2.14715e-15 1.54171e-14 0)
(-1.58956e-15 1.40937e-14 0)
(-1.09275e-15 1.2439e-14 0)
(-6.74232e-16 1.04208e-14 0)
(-3.46325e-16 8.00726e-15 0)
(-1.27045e-16 5.16203e-15 0)
(-1.22289e-18 1.92586e-15 0)
(-1.26599e-18 -1.85724e-15 0)
(-1.62678e-16 -4.96348e-15 0)
(-4.4475e-16 -7.68923e-15 0)
(-8.72387e-16 -9.9949e-15 0)
(-1.41129e-15 -1.19181e-14 0)
(-2.04764e-15 -1.34928e-14 0)
(-2.76651e-15 -1.47507e-14 0)
(-3.55082e-15 -1.57198e-14 0)
(-4.38553e-15 -1.64247e-14 0)
(-5.25623e-15 -1.68876e-14 0)
(-6.14948e-15 -1.71286e-14 0)
(-7.05305e-15 -1.71651e-14 0)
(-7.95551e-15 -1.70136e-14 0)