/*--------------------------------*- C++ -*----------------------------------*\
| =========                 |                                                 |
| \\      /  F ield         | OpenFOAM: The Open Source CFD Toolbox           |
|  \\    /   O peration     | Version:  5.0                                   |
|   \\  /    A nd           | Web:      www.OpenFOAM.org                      |
|    \\/     M anipulation  |                                                 |
\*---------------------------------------------------------------------------*/
FoamFile
{
    version     2.0;
    format      ascii;
    class       volScalarField;
    location    "420";
    object      p;
}
// * * * * * * * * * * * * * * * * * * * * * * * * * * * * * * * * * * * * * //

dimensions      [0 2 -2 0 0 0 0];

internalField   nonuniform List<scalar> 
1568
(
8.54705e-18
4.34549e-17
6.87727e-17
8.3668e-17
9.67494e-17
1.08436e-16
1.18021e-16
1.2674e-16
1.34809e-16
1.42276e-16
1.49356e-16
1.56244e-16
1.63033e-16
1.69756e-16
1.76504e-16
1.8334e-16
1.90277e-16
1.97346e-16
2.04557e-16
2.11925e-16
2.19435e-16
2.27107e-16
2.34611e-16
2.40215e-16
2.44511e-16
2.50133e-16
2.59236e-16
2.72393e-16
2.8731e-16
3.00512e-16
3.09666e-16
3.15342e-16
3.1963e-16
3.25196e-16
3.3268e-16
3.40356e-16
3.47842e-16
3.55219e-16
3.62418e-16
3.69478e-16
3.76404e-16
3.83235e-16
3.89964e-16
3.96689e-16
4.03438e-16
4.10307e-16
4.17392e-16
4.24846e-16
4.32791e-16
4.4148e-16
4.5125e-16
4.62474e-16
4.75402e-16
4.90763e-16
5.15028e-16
5.42803e-16
2.9716e-17
4.63248e-17
8.19601e-17
9.09023e-17
9.95187e-17
1.15987e-16
1.24625e-16
1.32685e-16
1.41519e-16
1.49181e-16
1.56017e-16
1.62773e-16
1.69595e-16
1.76139e-16
1.82711e-16
1.89325e-16
1.95964e-16
2.02704e-16
2.09559e-16
2.16551e-16
2.2366e-16
2.30949e-16
2.38545e-16
2.47143e-16
2.55632e-16
2.63488e-16
2.71482e-16
2.7784e-16
2.81992e-16
2.88494e-16
2.96446e-16
3.04199e-16
3.12459e-16
3.21171e-16
3.28772e-16
3.36188e-16
3.43129e-16
3.50257e-16
3.5702e-16
3.63755e-16
3.7043e-16
3.77171e-16
3.83629e-16
3.90215e-16
3.96824e-16
4.03691e-16
4.10803e-16
4.18339e-16
4.2625e-16
4.35294e-16
4.45463e-16
4.56628e-16
4.69423e-16
4.82689e-16
5.11068e-16
5.2914e-16
4.83031e-17
6.77674e-17
7.85162e-17
1.00997e-16
1.14894e-16
1.24053e-16
1.33001e-16
1.43529e-16
1.5122e-16
1.57536e-16
1.65615e-16
1.72626e-16
1.7847e-16
1.84871e-16
1.91286e-16
1.97239e-16
2.03474e-16
2.09749e-16
2.16106e-16
2.22379e-16
2.28853e-16
2.35363e-16
2.42047e-16
2.48647e-16
2.54802e-16
2.60585e-16
2.67765e-16
2.75835e-16
2.84025e-16
2.91875e-16
2.99042e-16
3.05095e-16
3.11604e-16
3.18154e-16
3.24634e-16
3.30994e-16
3.37699e-16
3.43783e-16
3.50174e-16
3.56492e-16
3.62482e-16
3.68274e-16
3.74758e-16
3.80968e-16
3.8748e-16
3.94152e-16
4.01134e-16
4.08563e-16
4.16817e-16
4.25698e-16
4.35031e-16
4.45389e-16
4.60874e-16
4.72167e-16
4.95773e-16
5.12042e-16
6.45715e-17
7.93969e-17
1.0408e-16
1.11428e-16
1.24155e-16
1.34426e-16
1.43244e-16
1.52513e-16
1.60475e-16
1.67616e-16
1.7418e-16
1.80318e-16
1.86659e-16
1.92908e-16
1.9853e-16
2.04477e-16
2.10347e-16
2.16058e-16
2.2176e-16
2.27813e-16
2.3371e-16
2.39655e-16
2.45529e-16
2.5155e-16
2.57281e-16
2.63321e-16
2.69678e-16
2.76514e-16
2.83366e-16
2.90287e-16
2.96716e-16
3.0242e-16
3.0795e-16
3.13849e-16
3.19987e-16
3.25904e-16
3.31841e-16
3.37824e-16
3.43538e-16
3.49361e-16
3.55346e-16
3.61416e-16
3.67199e-16
3.73132e-16
3.79301e-16
3.85686e-16
3.92292e-16
3.99744e-16
4.07443e-16
4.15344e-16
4.26028e-16
4.37245e-16
4.46935e-16
4.57542e-16
4.82231e-16
4.95311e-16
8.22507e-17
9.20136e-17
1.14403e-16
1.22826e-16
1.3437e-16
1.44469e-16
1.53482e-16
1.6147e-16
1.68385e-16
1.75531e-16
1.81973e-16
1.88041e-16
1.93904e-16
1.99389e-16
2.04838e-16
2.10354e-16
2.15696e-16
2.2112e-16
2.26546e-16
2.31951e-16
2.37372e-16
2.42893e-16
2.48465e-16
2.54128e-16
2.59694e-16
2.65428e-16
2.71211e-16
2.76993e-16
2.82743e-16
2.88573e-16
2.94409e-16
3.00239e-16
3.05894e-16
3.11521e-16
3.17144e-16
3.2264e-16
3.27949e-16
3.33419e-16
3.38807e-16
3.44105e-16
3.49372e-16
3.54723e-16
3.60139e-16
3.65821e-16
3.71577e-16
3.77681e-16
3.84195e-16
3.90813e-16
3.98016e-16
4.06827e-16
4.15213e-16
4.2312e-16
4.36751e-16
4.48452e-16
4.64542e-16
4.77243e-16
1.01434e-16
1.12716e-16
1.28344e-16
1.3872e-16
1.47682e-16
1.56271e-16
1.65174e-16
1.72525e-16
1.78802e-16
1.85369e-16
1.9145e-16
1.97015e-16
2.02322e-16
2.07572e-16
2.12749e-16
2.17618e-16
2.22454e-16
2.27354e-16
2.32266e-16
2.37054e-16
2.41956e-16
2.46934e-16
2.51886e-16
2.56835e-16
2.61863e-16
2.6685e-16
2.72021e-16
2.77312e-16
2.82589e-16
2.87811e-16
2.92916e-16
2.97942e-16
3.03018e-16
3.07981e-16
3.12823e-16
3.17756e-16
3.22688e-16
3.27533e-16
3.32426e-16
3.3734e-16
3.42219e-16
3.47163e-16
3.52286e-16
3.57415e-16
3.62803e-16
3.68405e-16
3.74147e-16
3.8075e-16
3.87798e-16
3.94156e-16
4.02871e-16
4.13478e-16
4.21446e-16
4.28562e-16
4.48405e-16
4.58559e-16
1.20874e-16
1.30478e-16
1.44407e-16
1.52734e-16
1.61449e-16
1.69819e-16
1.76898e-16
1.8336e-16
1.89868e-16
1.95728e-16
2.00982e-16
2.06003e-16
2.10908e-16
2.15637e-16
2.2015e-16
2.24624e-16
2.29097e-16
2.33442e-16
2.37758e-16
2.42159e-16
2.46544e-16
2.50859e-16
2.55222e-16
2.59633e-16
2.64078e-16
2.68542e-16
2.73077e-16
2.77634e-16
2.82231e-16
2.86848e-16
2.91344e-16
2.95733e-16
3.00143e-16
3.04544e-16
3.08907e-16
3.13272e-16
3.17683e-16
3.21995e-16
3.26303e-16
3.30676e-16
3.35117e-16
3.39596e-16
3.44147e-16
3.48802e-16
3.53681e-16
3.58818e-16
3.6419e-16
3.69875e-16
3.75979e-16
3.83102e-16
3.90541e-16
3.96785e-16
4.07123e-16
4.16986e-16
4.29442e-16
4.38793e-16
1.4095e-16
1.48551e-16
1.61079e-16
1.68151e-16
1.75946e-16
1.82993e-16
1.89054e-16
1.94987e-16
2.00767e-16
2.05662e-16
2.10429e-16
2.15089e-16
2.19457e-16
2.23568e-16
2.27574e-16
2.3155e-16
2.35444e-16
2.39269e-16
2.43087e-16
2.46908e-16
2.50704e-16
2.5453e-16
2.58382e-16
2.62252e-16
2.6611e-16
2.70033e-16
2.73967e-16
2.77922e-16
2.81897e-16
2.85841e-16
2.89829e-16
2.93793e-16
2.97627e-16
3.0148e-16
3.05382e-16
3.09189e-16
3.12945e-16
3.16765e-16
3.20574e-16
3.24394e-16
3.28242e-16
3.32141e-16
3.3615e-16
3.40319e-16
3.44637e-16
3.49155e-16
3.53858e-16
3.59095e-16
3.64679e-16
3.70083e-16
3.76713e-16
3.84554e-16
3.91428e-16
3.96649e-16
4.11094e-16
4.18707e-16
1.61607e-16
1.68144e-16
1.7899e-16
1.84794e-16
1.91033e-16
1.96737e-16
2.02479e-16
2.07683e-16
2.12258e-16
2.16645e-16
2.20854e-16
2.24697e-16
2.28439e-16
2.32057e-16
2.35538e-16
2.38917e-16
2.42209e-16
2.45512e-16
2.48789e-16
2.51992e-16
2.5522e-16
2.58525e-16
2.6176e-16
2.65011e-16
2.68303e-16
2.71606e-16
2.74918e-16
2.78266e-16
2.81614e-16
2.84925e-16
2.88245e-16
2.91545e-16
2.94834e-16
2.98088e-16
3.01323e-16
3.04556e-16
3.07785e-16
3.11023e-16
3.14286e-16
3.17564e-16
3.20871e-16
3.24264e-16
3.27757e-16
3.31315e-16
3.34997e-16
3.38947e-16
3.43105e-16
3.47437e-16
3.52043e-16
3.5731e-16
3.63049e-16
3.67854e-16
3.75179e-16
3.82019e-16
3.91281e-16
3.97929e-16
1.82672e-16
1.88018e-16
1.96485e-16
2.01228e-16
2.06592e-16
2.11405e-16
2.16216e-16
2.20322e-16
2.24e-16
2.27811e-16
2.31355e-16
2.3453e-16
2.37593e-16
2.40591e-16
2.43445e-16
2.46275e-16
2.49023e-16
2.5172e-16
2.5439e-16
2.57114e-16
2.59759e-16
2.62388e-16
2.65061e-16
2.67762e-16
2.70441e-16
2.73134e-16
2.75849e-16
2.78571e-16
2.81283e-16
2.84028e-16
2.86722e-16
2.89397e-16
2.92083e-16
2.94765e-16
2.97415e-16
3.00059e-16
3.02741e-16
3.05408e-16
3.0807e-16
3.10763e-16
3.13505e-16
3.16308e-16
3.19163e-16
3.22122e-16
3.25211e-16
3.28453e-16
3.31795e-16
3.35559e-16
3.39583e-16
3.43385e-16
3.48096e-16
3.53208e-16
3.58543e-16
3.62252e-16
3.71713e-16
3.76916e-16
2.04006e-16
2.08162e-16
2.14564e-16
2.18496e-16
2.2269e-16
2.26346e-16
2.29945e-16
2.33143e-16
2.36288e-16
2.3922e-16
2.41815e-16
2.44407e-16
2.46899e-16
2.49217e-16
2.51455e-16
2.53671e-16
2.55845e-16
2.57956e-16
2.60043e-16
2.62117e-16
2.64224e-16
2.66278e-16
2.68368e-16
2.70429e-16
2.72507e-16
2.74603e-16
2.76755e-16
2.78885e-16
2.81015e-16
2.83131e-16
2.85214e-16
2.87315e-16
2.89412e-16
2.91489e-16
2.9357e-16
2.95641e-16
2.97705e-16
2.99774e-16
3.01859e-16
3.03973e-16
3.06118e-16
3.08288e-16
3.10515e-16
3.12863e-16
3.15313e-16
3.1782e-16
3.20526e-16
3.23422e-16
3.26362e-16
3.29628e-16
3.33656e-16
3.36746e-16
3.40869e-16
3.45208e-16
3.51409e-16
3.55488e-16
2.25619e-16
2.28601e-16
2.33242e-16
2.35961e-16
2.38953e-16
2.41511e-16
2.44159e-16
2.46498e-16
2.48717e-16
2.50698e-16
2.52691e-16
2.54437e-16
2.56165e-16
2.58016e-16
2.59676e-16
2.61209e-16
2.62741e-16
2.6427e-16
2.658e-16
2.6725e-16
2.68749e-16
2.70238e-16
2.71735e-16
2.73231e-16
2.7477e-16
2.76251e-16
2.77699e-16
2.79125e-16
2.80608e-16
2.82129e-16
2.8367e-16
2.85174e-16
2.86644e-16
2.88109e-16
2.89582e-16
2.9109e-16
2.92547e-16
2.94017e-16
2.95521e-16
2.97032e-16
2.98557e-16
3.00132e-16
3.01751e-16
3.03564e-16
3.05283e-16
3.07039e-16
3.09e-16
3.10931e-16
3.13296e-16
3.15507e-16
3.17843e-16
3.20567e-16
3.2422e-16
3.26171e-16
3.30887e-16
3.33887e-16
2.47359e-16
2.49179e-16
2.52004e-16
2.53566e-16
2.55389e-16
2.56909e-16
2.58597e-16
2.60017e-16
2.61229e-16
2.62164e-16
2.64413e-16
2.65598e-16
2.65552e-16
2.66964e-16
2.67899e-16
2.68803e-16
2.69745e-16
2.70654e-16
2.71547e-16
2.7244e-16
2.73299e-16
2.74199e-16
2.75054e-16
2.759e-16
2.7675e-16
2.77646e-16
2.78571e-16
2.7955e-16
2.80465e-16
2.81294e-16
2.82138e-16
2.83014e-16
2.83893e-16
2.8479e-16
2.85657e-16
2.86495e-16
2.87386e-16
2.88278e-16
2.89154e-16
2.90045e-16
2.9096e-16
2.9187e-16
2.92804e-16
2.94153e-16
2.94132e-16
2.95329e-16
2.97468e-16
2.98513e-16
2.9962e-16
3.0077e-16
3.03124e-16
3.04381e-16
3.05467e-16
3.07312e-16
3.1053e-16
3.12121e-16
2.69238e-16
2.69861e-16
2.70778e-16
2.71358e-16
2.72028e-16
2.72452e-16
2.73083e-16
2.73574e-16
2.74135e-16
2.74419e-16
2.7509e-16
2.7526e-16
2.75311e-16
2.76225e-16
2.76215e-16
2.76427e-16
2.76753e-16
2.7702e-16
2.77274e-16
2.77578e-16
2.77866e-16
2.78136e-16
2.78412e-16
2.78725e-16
2.78993e-16
2.79279e-16
2.7952e-16
2.79758e-16
2.80027e-16
2.80328e-16
2.8061e-16
2.80897e-16
2.81157e-16
2.8142e-16
2.81718e-16
2.81959e-16
2.82255e-16
2.82518e-16
2.82773e-16
2.83066e-16
2.83352e-16
2.8351e-16
2.83547e-16
2.84419e-16
2.84442e-16
2.84646e-16
2.85223e-16
2.85445e-16
2.86168e-16
2.86779e-16
2.86965e-16
2.86876e-16
2.89066e-16
2.89128e-16
2.89468e-16
2.9022e-16
2.91123e-16
2.90616e-16
2.89722e-16
2.89167e-16
2.88709e-16
2.87997e-16
2.87608e-16
2.87039e-16
2.86438e-16
2.86225e-16
2.85491e-16
2.85294e-16
2.8526e-16
2.84314e-16
2.84264e-16
2.84055e-16
2.83706e-16
2.83372e-16
2.83069e-16
2.82758e-16
2.82423e-16
2.82072e-16
2.81765e-16
2.8146e-16
2.81135e-16
2.80788e-16
2.80453e-16
2.80068e-16
2.7971e-16
2.79411e-16
2.79094e-16
2.78745e-16
2.78415e-16
2.78058e-16
2.77729e-16
2.77423e-16
2.77074e-16
2.76725e-16
2.76412e-16
2.76071e-16
2.75728e-16
2.75488e-16
2.75436e-16
2.74498e-16
2.7441e-16
2.7418e-16
2.73507e-16
2.73337e-16
2.72537e-16
2.71655e-16
2.72012e-16
2.71367e-16
2.69949e-16
2.68841e-16
2.69216e-16
2.68365e-16
3.13023e-16
3.11421e-16
3.08564e-16
3.06896e-16
3.05365e-16
3.03525e-16
3.02156e-16
3.00662e-16
2.99325e-16
2.98474e-16
2.96223e-16
2.95007e-16
2.95041e-16
2.93601e-16
2.9265e-16
2.91704e-16
2.90721e-16
2.89801e-16
2.88871e-16
2.87911e-16
2.86976e-16
2.86094e-16
2.85122e-16
2.84135e-16
2.83173e-16
2.82235e-16
2.81339e-16
2.80476e-16
2.79533e-16
2.78545e-16
2.77532e-16
2.76587e-16
2.75658e-16
2.74744e-16
2.7376e-16
2.72842e-16
2.71877e-16
2.70968e-16
2.70019e-16
2.69055e-16
2.68067e-16
2.67136e-16
2.66118e-16
2.64684e-16
2.64697e-16
2.63528e-16
2.61195e-16
2.60177e-16
2.59093e-16
2.5787e-16
2.55775e-16
2.53332e-16
2.53768e-16
2.51599e-16
2.47984e-16
2.46428e-16
3.34784e-16
3.31923e-16
3.273e-16
3.2462e-16
3.21868e-16
3.18879e-16
3.16554e-16
3.14134e-16
3.11878e-16
3.09982e-16
3.07898e-16
3.06119e-16
3.04402e-16
3.02524e-16
3.00879e-16
2.99252e-16
2.97697e-16
2.96122e-16
2.94593e-16
2.93045e-16
2.9154e-16
2.89983e-16
2.88479e-16
2.86968e-16
2.85476e-16
2.8389e-16
2.82289e-16
2.80636e-16
2.79085e-16
2.77526e-16
2.76026e-16
2.74471e-16
2.72917e-16
2.71349e-16
2.69838e-16
2.68285e-16
2.66769e-16
2.65206e-16
2.63661e-16
2.6209e-16
2.60512e-16
2.58883e-16
2.57232e-16
2.55347e-16
2.53596e-16
2.5177e-16
2.49709e-16
2.4795e-16
2.45408e-16
2.42625e-16
2.41209e-16
2.38429e-16
2.34121e-16
2.31075e-16
2.27968e-16
2.2471e-16
3.56453e-16
3.5252e-16
3.45876e-16
3.42032e-16
3.38217e-16
3.34111e-16
3.30751e-16
3.27421e-16
3.24279e-16
3.21455e-16
3.18706e-16
3.16167e-16
3.13689e-16
3.11302e-16
3.09021e-16
3.06813e-16
3.04617e-16
3.02449e-16
3.00308e-16
2.98195e-16
2.96075e-16
2.93918e-16
2.91794e-16
2.89627e-16
2.87471e-16
2.85307e-16
2.83202e-16
2.81025e-16
2.78879e-16
2.76668e-16
2.7452e-16
2.72318e-16
2.70195e-16
2.6802e-16
2.65931e-16
2.63744e-16
2.61646e-16
2.59468e-16
2.5736e-16
2.55156e-16
2.52979e-16
2.50688e-16
2.48461e-16
2.46008e-16
2.43548e-16
2.41053e-16
2.38223e-16
2.35136e-16
2.32481e-16
2.29348e-16
2.24955e-16
2.20406e-16
2.18963e-16
2.1457e-16
2.06793e-16
2.03005e-16
3.7784e-16
3.72572e-16
3.6423e-16
3.59194e-16
3.54269e-16
3.49102e-16
3.44732e-16
3.40486e-16
3.36513e-16
3.32941e-16
3.29397e-16
3.26151e-16
3.23023e-16
3.20077e-16
3.17105e-16
3.1435e-16
3.1147e-16
3.0883e-16
3.0599e-16
3.0339e-16
3.00533e-16
2.97971e-16
2.95108e-16
2.92516e-16
2.89606e-16
2.87003e-16
2.84037e-16
2.81424e-16
2.7844e-16
2.75833e-16
2.72843e-16
2.70261e-16
2.67331e-16
2.64777e-16
2.61841e-16
2.59315e-16
2.56415e-16
2.5386e-16
2.50942e-16
2.48352e-16
2.45387e-16
2.42701e-16
2.39634e-16
2.36741e-16
2.33518e-16
2.30251e-16
2.26691e-16
2.23491e-16
2.18936e-16
2.14114e-16
2.11405e-16
2.06341e-16
1.99081e-16
1.93824e-16
1.87402e-16
1.81697e-16
3.98985e-16
3.9256e-16
3.82088e-16
3.75893e-16
3.69847e-16
3.63507e-16
3.58296e-16
3.53149e-16
3.48375e-16
3.43979e-16
3.39845e-16
3.35859e-16
3.32187e-16
3.28507e-16
3.2505e-16
3.2154e-16
3.18267e-16
3.14865e-16
3.11659e-16
3.08257e-16
3.05072e-16
3.0169e-16
2.98457e-16
2.95055e-16
2.9181e-16
2.88363e-16
2.85056e-16
2.8158e-16
2.78245e-16
2.74767e-16
2.71457e-16
2.68032e-16
2.64738e-16
2.61336e-16
2.58075e-16
2.54737e-16
2.51471e-16
2.4815e-16
2.44884e-16
2.41529e-16
2.38179e-16
2.34759e-16
2.31263e-16
2.27597e-16
2.23814e-16
2.20018e-16
2.15794e-16
2.10965e-16
2.0655e-16
2.02541e-16
1.95384e-16
1.87921e-16
1.85516e-16
1.793e-16
1.66565e-16
1.60476e-16
4.19708e-16
4.11959e-16
3.99467e-16
3.92288e-16
3.85236e-16
3.77584e-16
3.71444e-16
3.65503e-16
3.59929e-16
3.54805e-16
3.5008e-16
3.45394e-16
3.41158e-16
3.36802e-16
3.32965e-16
3.28785e-16
3.25119e-16
3.20914e-16
3.17404e-16
3.13194e-16
3.09743e-16
3.05408e-16
3.01998e-16
2.97593e-16
2.94184e-16
2.89666e-16
2.86262e-16
2.81613e-16
2.78224e-16
2.73555e-16
2.70242e-16
2.65612e-16
2.62375e-16
2.57805e-16
2.54623e-16
2.49986e-16
2.46811e-16
2.4228e-16
2.39056e-16
2.34492e-16
2.31191e-16
2.26549e-16
2.23024e-16
2.18326e-16
2.14548e-16
2.09427e-16
2.04829e-16
1.99814e-16
1.94622e-16
1.86754e-16
1.82314e-16
1.7682e-16
1.65986e-16
1.5737e-16
1.48435e-16
1.39931e-16
4.39949e-16
4.30695e-16
4.16626e-16
4.07499e-16
3.99674e-16
3.91345e-16
3.8399e-16
3.77416e-16
3.71092e-16
3.65474e-16
3.59848e-16
3.54922e-16
3.49873e-16
3.45383e-16
3.40465e-16
3.36254e-16
3.31486e-16
3.2748e-16
3.22613e-16
3.18692e-16
3.13745e-16
3.09882e-16
3.04861e-16
3.00943e-16
2.95836e-16
2.91896e-16
2.86644e-16
2.82623e-16
2.77264e-16
2.7327e-16
2.67939e-16
2.64036e-16
2.58818e-16
2.54961e-16
2.49813e-16
2.46102e-16
2.41081e-16
2.37194e-16
2.32216e-16
2.28386e-16
2.23424e-16
2.19423e-16
2.14365e-16
2.1002e-16
2.04623e-16
1.99827e-16
1.94356e-16
1.88593e-16
1.81764e-16
1.76547e-16
1.68949e-16
1.57181e-16
1.53225e-16
1.45558e-16
1.28461e-16
1.19559e-16
4.59595e-16
4.4888e-16
4.32429e-16
4.22392e-16
4.13192e-16
4.03862e-16
3.95784e-16
3.88437e-16
3.8146e-16
3.75221e-16
3.69147e-16
3.63654e-16
3.58017e-16
3.5304e-16
3.47672e-16
3.43041e-16
3.37645e-16
3.3321e-16
3.27767e-16
3.23437e-16
3.17831e-16
3.13584e-16
3.07757e-16
3.03607e-16
2.97632e-16
2.93512e-16
2.87289e-16
2.83097e-16
2.76673e-16
2.72546e-16
2.66101e-16
2.62212e-16
2.55922e-16
2.52146e-16
2.45862e-16
2.42202e-16
2.35859e-16
2.32302e-16
2.26223e-16
2.22514e-16
2.16293e-16
2.12555e-16
2.06351e-16
2.02148e-16
1.95813e-16
1.9121e-16
1.84142e-16
1.78577e-16
1.71377e-16
1.63894e-16
1.54885e-16
1.48517e-16
1.37407e-16
1.24776e-16
1.11126e-16
1.00108e-16
4.78562e-16
4.66707e-16
4.47406e-16
4.3723e-16
4.26266e-16
4.15887e-16
4.07537e-16
3.99163e-16
3.91865e-16
3.84905e-16
3.78765e-16
3.72292e-16
3.66915e-16
3.60795e-16
3.55872e-16
3.49754e-16
3.45124e-16
3.38816e-16
3.34416e-16
3.27814e-16
3.2356e-16
3.16647e-16
3.1249e-16
3.05326e-16
3.01223e-16
2.93826e-16
2.89649e-16
2.81948e-16
2.77915e-16
2.70111e-16
2.66299e-16
2.58724e-16
2.55092e-16
2.47497e-16
2.43832e-16
2.36138e-16
2.32617e-16
2.25336e-16
2.21427e-16
2.14206e-16
2.10421e-16
2.03251e-16
1.99196e-16
1.92173e-16
1.87629e-16
1.80313e-16
1.74837e-16
1.6724e-16
1.60623e-16
1.51773e-16
1.44061e-16
1.32487e-16
1.21532e-16
1.14214e-16
9.28432e-17
8.10739e-17
4.96462e-16
4.82637e-16
4.59897e-16
4.49244e-16
4.37605e-16
4.26577e-16
4.17508e-16
4.08875e-16
4.0106e-16
3.93898e-16
3.87107e-16
3.80628e-16
3.74531e-16
3.68378e-16
3.625e-16
3.56494e-16
3.50818e-16
3.44725e-16
3.39058e-16
3.32839e-16
3.27128e-16
3.20782e-16
3.15073e-16
3.08526e-16
3.03054e-16
2.96536e-16
2.90624e-16
2.83181e-16
2.76773e-16
2.69254e-16
2.63251e-16
2.56254e-16
2.5074e-16
2.43947e-16
2.38676e-16
2.32091e-16
2.26911e-16
2.19991e-16
2.15067e-16
2.08743e-16
2.03799e-16
1.9716e-16
1.91979e-16
1.85222e-16
1.79653e-16
1.72568e-16
1.6657e-16
1.58769e-16
1.5127e-16
1.42011e-16
1.33857e-16
1.2251e-16
1.11003e-16
9.89956e-17
7.71506e-17
6.3302e-17
5.13407e-16
4.97818e-16
4.73328e-16
4.60141e-16
4.48018e-16
4.36153e-16
4.26149e-16
4.17587e-16
4.09185e-16
4.01916e-16
3.9457e-16
3.88256e-16
3.81294e-16
3.75572e-16
3.68676e-16
3.6327e-16
3.56139e-16
3.50928e-16
3.43408e-16
3.38359e-16
3.30368e-16
3.25405e-16
3.17073e-16
3.12304e-16
3.04328e-16
3.00405e-16
2.90936e-16
2.8503e-16
2.74612e-16
2.68918e-16
2.59249e-16
2.56183e-16
2.47852e-16
2.43769e-16
2.3438e-16
2.30364e-16
2.21141e-16
2.17303e-16
2.08657e-16
2.04211e-16
1.9548e-16
1.91583e-16
1.83275e-16
1.78794e-16
1.70601e-16
1.65546e-16
1.56852e-16
1.50581e-16
1.41598e-16
1.33767e-16
1.22677e-16
1.11247e-16
9.98907e-17
8.61464e-17
6.21045e-17
4.64111e-17
5.30416e-16
5.11748e-16
4.84694e-16
4.703e-16
4.57917e-16
4.46454e-16
4.36547e-16
4.27627e-16
4.19548e-16
4.12013e-16
4.04919e-16
3.98011e-16
3.91356e-16
3.84683e-16
3.78152e-16
3.71445e-16
3.6481e-16
3.57949e-16
3.5112e-16
3.43974e-16
3.36897e-16
3.29469e-16
3.21852e-16
3.13037e-16
3.04498e-16
2.96543e-16
2.8858e-16
2.82095e-16
2.7781e-16
2.71297e-16
2.63312e-16
2.55156e-16
2.465e-16
2.37699e-16
2.30171e-16
2.22732e-16
2.15704e-16
2.0855e-16
2.01647e-16
1.94965e-16
1.88464e-16
1.81718e-16
1.75113e-16
1.6849e-16
1.61793e-16
1.54914e-16
1.478e-16
1.403e-16
1.32091e-16
1.23242e-16
1.1346e-16
1.01974e-16
8.93247e-17
7.50628e-17
4.81585e-17
2.94348e-17
5.44075e-16
5.1615e-16
4.91966e-16
4.76548e-16
4.63591e-16
4.52341e-16
4.42586e-16
4.33857e-16
4.25878e-16
4.18406e-16
4.11299e-16
4.04389e-16
3.9762e-16
3.90847e-16
3.84082e-16
3.77193e-16
3.70243e-16
3.63098e-16
3.55869e-16
3.48415e-16
3.40889e-16
3.33112e-16
3.25612e-16
3.19945e-16
3.15631e-16
3.09854e-16
3.00687e-16
2.87369e-16
2.72429e-16
2.59125e-16
2.49997e-16
2.4423e-16
2.3993e-16
2.34227e-16
2.26744e-16
2.1893e-16
2.11426e-16
2.03931e-16
1.96711e-16
1.89531e-16
1.82599e-16
1.75656e-16
1.68915e-16
1.62107e-16
1.55352e-16
1.48403e-16
1.41318e-16
1.33818e-16
1.2584e-16
1.17084e-16
1.07359e-16
9.61099e-17
8.3142e-17
6.77501e-17
4.35972e-17
1.57225e-17
)
;

boundaryField
{
    top
    {
        type            zeroGradient;
    }
    bottom
    {
        type            zeroGradient;
    }
    rotatingWall
    {
        type            zeroGradient;
    }
    wall
    {
        type            zeroGradient;
    }
    frontAndBack
    {
        type            empty;
    }
}


// ************************************************************************* //
