/*--------------------------------*- C++ -*----------------------------------*\
| =========                 |                                                 |
| \\      /  F ield         | OpenFOAM: The Open Source CFD Toolbox           |
|  \\    /   O peration     | Version:  5.0                                   |
|   \\  /    A nd           | Web:      www.OpenFOAM.org                      |
|    \\/     M anipulation  |                                                 |
\*---------------------------------------------------------------------------*/
FoamFile
{
    version     2.0;
    format      ascii;
    class       volScalarField;
    location    "252";
    object      p;
}
// * * * * * * * * * * * * * * * * * * * * * * * * * * * * * * * * * * * * * //

dimensions      [0 2 -2 0 0 0 0];

internalField   nonuniform List<scalar> 
1568
(
1.20488e-14
2.92032e-14
4.5094e-14
4.8334e-14
5.43016e-14
6.19967e-14
6.50689e-14
6.86425e-14
7.24588e-14
7.55698e-14
7.84661e-14
8.14657e-14
8.44517e-14
8.73071e-14
9.0144e-14
9.30555e-14
9.59606e-14
9.89451e-14
1.01945e-13
1.05073e-13
1.08203e-13
1.1147e-13
1.1459e-13
1.16968e-13
1.18675e-13
1.21126e-13
1.24992e-13
1.30742e-13
1.36901e-13
1.42458e-13
1.46104e-13
1.48462e-13
1.50096e-13
1.52588e-13
1.55658e-13
1.58956e-13
1.61939e-13
1.65135e-13
1.68081e-13
1.71058e-13
1.7387e-13
1.76781e-13
1.79494e-13
1.82351e-13
1.85138e-13
1.88064e-13
1.91007e-13
1.94185e-13
1.97543e-13
2.01213e-13
2.05329e-13
2.10347e-13
2.16274e-13
2.22277e-13
2.33473e-13
2.44749e-13
2.50465e-14
-9.84362e-15
9.26258e-14
6.20578e-14
3.61696e-14
7.34985e-14
7.06564e-14
6.8874e-14
7.66814e-14
8.07242e-14
8.2267e-14
8.4932e-14
8.80964e-14
9.05997e-14
9.36058e-14
9.65899e-14
9.92811e-14
1.02357e-13
1.0527e-13
1.08325e-13
1.11028e-13
1.14389e-13
1.17189e-13
1.20752e-13
1.23536e-13
1.27375e-13
1.29997e-13
1.33046e-13
1.33818e-13
1.38111e-13
1.40827e-13
1.44455e-13
1.46104e-13
1.50156e-13
1.52506e-13
1.56634e-13
1.58389e-13
1.62256e-13
1.64333e-13
1.67377e-13
1.69952e-13
1.73757e-13
1.75911e-13
1.78805e-13
1.81137e-13
1.84432e-13
1.87122e-13
1.9049e-13
1.93609e-13
1.98138e-13
2.03013e-13
2.07181e-13
2.14765e-13
2.12733e-13
2.34446e-13
2.39195e-13
3.84203e-14
6.32096e-14
1.46841e-14
4.74166e-14
5.87456e-14
6.97208e-14
6.51983e-14
7.13529e-14
7.63012e-14
7.51441e-14
8.09842e-14
8.58298e-14
8.69583e-14
8.96734e-14
9.28601e-14
9.46702e-14
9.75325e-14
1.00257e-13
1.03255e-13
1.05759e-13
1.08809e-13
1.11888e-13
1.15765e-13
1.18719e-13
1.22411e-13
1.24699e-13
1.28011e-13
1.3143e-13
1.35685e-13
1.3826e-13
1.41605e-13
1.45467e-13
1.51267e-13
1.54227e-13
1.57084e-13
1.59291e-13
1.63047e-13
1.64806e-13
1.67825e-13
1.7052e-13
1.72102e-13
1.72831e-13
1.76336e-13
1.78797e-13
1.82028e-13
1.84795e-13
1.8785e-13
1.91172e-13
1.94605e-13
1.97885e-13
2.01154e-13
2.01037e-13
2.1982e-13
2.1824e-13
2.23068e-13
2.31471e-13
4.22931e-14
5.99285e-14
7.24491e-14
5.93855e-14
7.66265e-14
8.04509e-14
7.53236e-14
8.27495e-14
9.02009e-14
9.18518e-14
9.30036e-14
9.50775e-14
9.81094e-14
1.01555e-13
1.03251e-13
1.06198e-13
1.08825e-13
1.10857e-13
1.12609e-13
1.15629e-13
1.17677e-13
1.19733e-13
1.21244e-13
1.23466e-13
1.25144e-13
1.27734e-13
1.29976e-13
1.32972e-13
1.35462e-13
1.38375e-13
1.40242e-13
1.40987e-13
1.41469e-13
1.42912e-13
1.45441e-13
1.47764e-13
1.5011e-13
1.52845e-13
1.54803e-13
1.57766e-13
1.61058e-13
1.64708e-13
1.67052e-13
1.69405e-13
1.71811e-13
1.74481e-13
1.7666e-13
1.80308e-13
1.84147e-13
1.86723e-13
1.93745e-13
1.99148e-13
2.0085e-13
1.99696e-13
2.23068e-13
2.24995e-13
4.84819e-14
3.96955e-14
6.22639e-14
6.39147e-14
7.49264e-14
7.52321e-14
7.73286e-14
8.40407e-14
8.65866e-14
8.89661e-14
9.18178e-14
9.4784e-14
9.72218e-14
9.91752e-14
1.01251e-13
1.0387e-13
1.06236e-13
1.08758e-13
1.11209e-13
1.13574e-13
1.15779e-13
1.18088e-13
1.20494e-13
1.23031e-13
1.25208e-13
1.27732e-13
1.30161e-13
1.32276e-13
1.34491e-13
1.37027e-13
1.39747e-13
1.42412e-13
1.44808e-13
1.47172e-13
1.50038e-13
1.52373e-13
1.54234e-13
1.56572e-13
1.58775e-13
1.60759e-13
1.62654e-13
1.64688e-13
1.66656e-13
1.68996e-13
1.71444e-13
1.74136e-13
1.77149e-13
1.79936e-13
1.82202e-13
1.87794e-13
1.91864e-13
1.87373e-13
2.03123e-13
2.11783e-13
2.08578e-13
2.16551e-13
5.88045e-14
6.5731e-14
7.25504e-14
7.72606e-14
7.67065e-14
7.67101e-14
8.46009e-14
8.96583e-14
8.92647e-14
9.16308e-14
9.53065e-14
9.8049e-14
1.00074e-13
1.02487e-13
1.05041e-13
1.06876e-13
1.08605e-13
1.10618e-13
1.12789e-13
1.14597e-13
1.16668e-13
1.19067e-13
1.21343e-13
1.23497e-13
1.25679e-13
1.27702e-13
1.30021e-13
1.32456e-13
1.34771e-13
1.37069e-13
1.39244e-13
1.4155e-13
1.442e-13
1.46458e-13
1.48279e-13
1.50252e-13
1.52328e-13
1.54443e-13
1.56569e-13
1.58659e-13
1.60604e-13
1.62669e-13
1.64932e-13
1.66952e-13
1.69361e-13
1.71774e-13
1.73755e-13
1.77165e-13
1.80572e-13
1.80787e-13
1.86488e-13
1.94139e-13
1.93747e-13
1.87978e-13
2.07645e-13
2.09453e-13
6.67006e-14
7.42903e-14
7.72278e-14
7.91667e-14
8.29946e-14
8.75597e-14
9.21842e-14
9.43726e-14
9.63747e-14
9.92261e-14
1.01897e-13
1.03696e-13
1.05443e-13
1.07493e-13
1.0944e-13
1.11346e-13
1.13284e-13
1.15045e-13
1.16796e-13
1.18703e-13
1.2057e-13
1.22199e-13
1.2384e-13
1.25587e-13
1.27449e-13
1.29252e-13
1.31109e-13
1.32919e-13
1.3481e-13
1.36634e-13
1.38101e-13
1.3952e-13
1.41228e-13
1.42867e-13
1.44414e-13
1.46143e-13
1.48174e-13
1.49912e-13
1.51627e-13
1.53543e-13
1.55599e-13
1.57591e-13
1.59536e-13
1.61491e-13
1.63676e-13
1.65757e-13
1.67886e-13
1.70731e-13
1.72736e-13
1.76199e-13
1.81465e-13
1.77911e-13
1.88166e-13
1.9728e-13
1.96116e-13
2.00529e-13
7.43341e-14
7.70612e-14
8.04674e-14
8.40551e-14
9.05038e-14
9.36619e-14
9.51643e-14
9.6868e-14
9.99597e-14
1.02128e-13
1.0432e-13
1.06215e-13
1.08101e-13
1.09895e-13
1.11531e-13
1.13253e-13
1.14992e-13
1.16623e-13
1.1824e-13
1.19883e-13
1.21441e-13
1.23055e-13
1.24629e-13
1.26251e-13
1.27851e-13
1.29527e-13
1.311e-13
1.32704e-13
1.34408e-13
1.36061e-13
1.37892e-13
1.39681e-13
1.41084e-13
1.42626e-13
1.44453e-13
1.46098e-13
1.47566e-13
1.49112e-13
1.50611e-13
1.52179e-13
1.53717e-13
1.55206e-13
1.5677e-13
1.585e-13
1.60329e-13
1.62156e-13
1.63872e-13
1.66667e-13
1.69375e-13
1.70452e-13
1.74322e-13
1.78679e-13
1.81084e-13
1.76247e-13
1.90191e-13
1.92477e-13
8.30404e-14
8.5837e-14
9.09332e-14
9.36721e-14
9.73879e-14
9.74797e-14
9.99732e-14
1.02719e-13
1.04764e-13
1.06771e-13
1.08556e-13
1.09767e-13
1.11579e-13
1.1336e-13
1.14771e-13
1.16148e-13
1.17494e-13
1.18918e-13
1.20334e-13
1.21614e-13
1.22952e-13
1.24552e-13
1.25929e-13
1.27286e-13
1.28686e-13
1.30078e-13
1.3147e-13
1.32904e-13
1.34325e-13
1.35673e-13
1.37188e-13
1.38692e-13
1.40145e-13
1.41541e-13
1.42949e-13
1.44261e-13
1.45544e-13
1.4687e-13
1.48249e-13
1.49597e-13
1.50939e-13
1.52371e-13
1.53835e-13
1.55235e-13
1.56806e-13
1.58559e-13
1.60314e-13
1.62348e-13
1.63773e-13
1.66192e-13
1.70614e-13
1.67942e-13
1.74574e-13
1.79701e-13
1.80201e-13
1.83454e-13
9.20893e-14
9.54952e-14
9.83756e-14
1.00176e-13
1.03322e-13
1.03322e-13
1.06843e-13
1.09289e-13
1.09926e-13
1.11653e-13
1.13466e-13
1.14685e-13
1.16003e-13
1.17307e-13
1.18387e-13
1.19664e-13
1.20821e-13
1.21911e-13
1.22993e-13
1.24305e-13
1.25336e-13
1.26311e-13
1.27429e-13
1.28602e-13
1.29655e-13
1.30767e-13
1.31974e-13
1.3318e-13
1.34279e-13
1.35425e-13
1.36413e-13
1.37427e-13
1.38508e-13
1.39646e-13
1.40693e-13
1.41699e-13
1.42856e-13
1.44032e-13
1.4514e-13
1.46227e-13
1.47377e-13
1.48605e-13
1.49758e-13
1.51003e-13
1.52428e-13
1.53792e-13
1.54963e-13
1.5696e-13
1.58746e-13
1.59583e-13
1.62841e-13
1.64067e-13
1.68291e-13
1.65641e-13
1.7297e-13
1.74852e-13
1.0099e-13
1.03556e-13
1.04669e-13
1.07088e-13
1.10147e-13
1.09994e-13
1.12628e-13
1.14319e-13
1.15078e-13
1.16384e-13
1.17498e-13
1.18828e-13
1.19836e-13
1.20695e-13
1.21664e-13
1.22666e-13
1.23648e-13
1.24531e-13
1.25395e-13
1.26215e-13
1.27173e-13
1.27943e-13
1.28822e-13
1.29578e-13
1.3042e-13
1.31287e-13
1.32325e-13
1.33265e-13
1.34207e-13
1.35098e-13
1.35852e-13
1.36683e-13
1.3755e-13
1.38382e-13
1.39234e-13
1.40088e-13
1.40943e-13
1.41781e-13
1.42624e-13
1.43492e-13
1.44386e-13
1.45267e-13
1.4615e-13
1.47112e-13
1.48211e-13
1.49168e-13
1.50267e-13
1.52011e-13
1.52759e-13
1.53737e-13
1.57958e-13
1.56226e-13
1.58562e-13
1.61667e-13
1.64269e-13
1.65749e-13
1.10164e-13
1.12326e-13
1.1272e-13
1.1451e-13
1.17179e-13
1.16577e-13
1.18463e-13
1.19583e-13
1.20037e-13
1.21193e-13
1.22157e-13
1.22792e-13
1.23362e-13
1.24239e-13
1.25187e-13
1.25655e-13
1.26214e-13
1.26918e-13
1.27676e-13
1.28142e-13
1.2885e-13
1.29543e-13
1.30262e-13
1.30956e-13
1.31805e-13
1.32399e-13
1.32793e-13
1.3306e-13
1.33574e-13
1.34288e-13
1.35124e-13
1.35881e-13
1.36483e-13
1.37061e-13
1.37672e-13
1.38402e-13
1.38977e-13
1.39549e-13
1.40168e-13
1.4079e-13
1.41388e-13
1.42098e-13
1.42769e-13
1.43429e-13
1.44261e-13
1.44938e-13
1.45589e-13
1.46814e-13
1.4781e-13
1.48409e-13
1.50008e-13
1.49405e-13
1.54406e-13
1.53063e-13
1.54405e-13
1.56615e-13
1.19342e-13
1.20978e-13
1.21152e-13
1.22206e-13
1.23953e-13
1.2302e-13
1.2453e-13
1.25351e-13
1.25359e-13
1.26023e-13
1.27148e-13
1.27499e-13
1.27502e-13
1.28132e-13
1.28579e-13
1.28884e-13
1.29284e-13
1.29717e-13
1.30113e-13
1.30485e-13
1.30775e-13
1.31185e-13
1.31401e-13
1.31581e-13
1.31834e-13
1.32321e-13
1.32955e-13
1.33745e-13
1.34291e-13
1.34443e-13
1.3461e-13
1.34924e-13
1.35281e-13
1.35717e-13
1.36079e-13
1.36293e-13
1.36713e-13
1.37117e-13
1.37468e-13
1.37817e-13
1.38176e-13
1.38587e-13
1.38951e-13
1.39295e-13
1.39731e-13
1.40227e-13
1.40644e-13
1.41833e-13
1.41894e-13
1.41336e-13
1.45425e-13
1.44229e-13
1.43031e-13
1.43393e-13
1.48044e-13
1.4762e-13
1.28645e-13
1.29624e-13
1.28946e-13
1.2976e-13
1.30861e-13
1.29561e-13
1.30605e-13
1.31099e-13
1.30896e-13
1.31132e-13
1.31508e-13
1.31544e-13
1.31636e-13
1.31942e-13
1.31862e-13
1.32037e-13
1.32289e-13
1.32347e-13
1.32378e-13
1.32587e-13
1.32734e-13
1.32878e-13
1.33071e-13
1.33438e-13
1.33556e-13
1.3362e-13
1.3344e-13
1.3329e-13
1.33352e-13
1.33635e-13
1.33842e-13
1.34034e-13
1.34091e-13
1.3418e-13
1.34401e-13
1.34423e-13
1.34606e-13
1.34691e-13
1.34754e-13
1.34917e-13
1.35037e-13
1.35109e-13
1.35193e-13
1.35329e-13
1.35496e-13
1.35709e-13
1.3565e-13
1.35971e-13
1.36335e-13
1.36931e-13
1.37032e-13
1.33563e-13
1.40796e-13
1.39229e-13
1.36577e-13
1.38123e-13
1.37877e-13
1.38264e-13
1.36987e-13
1.3719e-13
1.37948e-13
1.36137e-13
1.36713e-13
1.36768e-13
1.36102e-13
1.36137e-13
1.35889e-13
1.35681e-13
1.35692e-13
1.35426e-13
1.35354e-13
1.35262e-13
1.35094e-13
1.34897e-13
1.34829e-13
1.34758e-13
1.34609e-13
1.34413e-13
1.34412e-13
1.34452e-13
1.34351e-13
1.34093e-13
1.33868e-13
1.33461e-13
1.33237e-13
1.33286e-13
1.33276e-13
1.3313e-13
1.33015e-13
1.32795e-13
1.32682e-13
1.32651e-13
1.32462e-13
1.32266e-13
1.32177e-13
1.32002e-13
1.31864e-13
1.31736e-13
1.31697e-13
1.3142e-13
1.31335e-13
1.31118e-13
1.30849e-13
1.31266e-13
1.30579e-13
1.29028e-13
1.31951e-13
1.31251e-13
1.2849e-13
1.24114e-13
1.31357e-13
1.29188e-13
1.47283e-13
1.47928e-13
1.44957e-13
1.44523e-13
1.45094e-13
1.42667e-13
1.42844e-13
1.42454e-13
1.41386e-13
1.41162e-13
1.40444e-13
1.39857e-13
1.39729e-13
1.39221e-13
1.3887e-13
1.38456e-13
1.38022e-13
1.37712e-13
1.37341e-13
1.36858e-13
1.36458e-13
1.36196e-13
1.35609e-13
1.34935e-13
1.34407e-13
1.34094e-13
1.34126e-13
1.34191e-13
1.33932e-13
1.33363e-13
1.32667e-13
1.32215e-13
1.31925e-13
1.31604e-13
1.31084e-13
1.30736e-13
1.3026e-13
1.29953e-13
1.29585e-13
1.29126e-13
1.28716e-13
1.28361e-13
1.27828e-13
1.27326e-13
1.27145e-13
1.26716e-13
1.25852e-13
1.25335e-13
1.25106e-13
1.25348e-13
1.23605e-13
1.18786e-13
1.27153e-13
1.24064e-13
1.1926e-13
1.19554e-13
1.56396e-13
1.55682e-13
1.52755e-13
1.52175e-13
1.52118e-13
1.49002e-13
1.48891e-13
1.48133e-13
1.46675e-13
1.4603e-13
1.45237e-13
1.44359e-13
1.43672e-13
1.42939e-13
1.42204e-13
1.41493e-13
1.40874e-13
1.40236e-13
1.39581e-13
1.38943e-13
1.38332e-13
1.37736e-13
1.37175e-13
1.36763e-13
1.36254e-13
1.3555e-13
1.34613e-13
1.33657e-13
1.32923e-13
1.32403e-13
1.31898e-13
1.31403e-13
1.30712e-13
1.30088e-13
1.29449e-13
1.28874e-13
1.28208e-13
1.27587e-13
1.26883e-13
1.26271e-13
1.25597e-13
1.24986e-13
1.24196e-13
1.23433e-13
1.22759e-13
1.21956e-13
1.20892e-13
1.20866e-13
1.19289e-13
1.16516e-13
1.19237e-13
1.1838e-13
1.12163e-13
1.07176e-13
1.14687e-13
1.10803e-13
1.65728e-13
1.65454e-13
1.60988e-13
1.59458e-13
1.59182e-13
1.55519e-13
1.54963e-13
1.53827e-13
1.51956e-13
1.50922e-13
1.49909e-13
1.48725e-13
1.47691e-13
1.46688e-13
1.45742e-13
1.44829e-13
1.43936e-13
1.42964e-13
1.4211e-13
1.41222e-13
1.40399e-13
1.39365e-13
1.38506e-13
1.37487e-13
1.36646e-13
1.35698e-13
1.3503e-13
1.34073e-13
1.33325e-13
1.32288e-13
1.31488e-13
1.30408e-13
1.29608e-13
1.28566e-13
1.27862e-13
1.2681e-13
1.26058e-13
1.25024e-13
1.24266e-13
1.23205e-13
1.22377e-13
1.21302e-13
1.20474e-13
1.193e-13
1.18414e-13
1.17373e-13
1.16183e-13
1.14676e-13
1.13925e-13
1.13589e-13
1.10461e-13
1.04307e-13
1.13289e-13
1.09634e-13
1.00856e-13
1.01158e-13
1.74727e-13
1.72952e-13
1.68853e-13
1.66458e-13
1.65983e-13
1.61852e-13
1.60811e-13
1.59335e-13
1.57058e-13
1.55773e-13
1.54382e-13
1.52945e-13
1.51505e-13
1.50404e-13
1.49084e-13
1.48053e-13
1.4669e-13
1.45755e-13
1.44403e-13
1.43491e-13
1.42082e-13
1.41232e-13
1.39838e-13
1.38926e-13
1.37468e-13
1.36627e-13
1.35193e-13
1.34406e-13
1.32941e-13
1.32089e-13
1.30533e-13
1.29687e-13
1.28272e-13
1.27453e-13
1.25979e-13
1.25156e-13
1.23737e-13
1.22899e-13
1.21472e-13
1.20579e-13
1.19138e-13
1.18243e-13
1.16761e-13
1.15588e-13
1.14204e-13
1.12873e-13
1.11037e-13
1.10654e-13
1.08166e-13
1.03941e-13
1.07103e-13
1.05589e-13
9.64732e-14
8.99899e-14
9.77117e-14
9.27315e-14
1.83776e-13
1.82015e-13
1.7689e-13
1.73038e-13
1.7237e-13
1.67571e-13
1.66161e-13
1.64349e-13
1.61797e-13
1.59955e-13
1.58385e-13
1.56569e-13
1.55065e-13
1.53505e-13
1.52067e-13
1.50464e-13
1.49174e-13
1.47724e-13
1.46455e-13
1.44979e-13
1.43707e-13
1.42344e-13
1.40967e-13
1.39625e-13
1.38267e-13
1.36941e-13
1.35519e-13
1.34224e-13
1.32736e-13
1.31467e-13
1.30037e-13
1.28889e-13
1.27426e-13
1.26227e-13
1.24696e-13
1.23515e-13
1.2193e-13
1.20786e-13
1.19249e-13
1.18054e-13
1.16435e-13
1.15251e-13
1.13554e-13
1.12248e-13
1.10578e-13
1.09258e-13
1.07205e-13
1.05056e-13
1.03037e-13
1.03869e-13
9.81337e-14
8.85601e-14
1.00918e-13
9.75756e-14
8.34821e-14
8.31307e-14
1.92583e-13
1.89697e-13
1.84523e-13
1.8009e-13
1.79806e-13
1.74117e-13
1.72044e-13
1.69879e-13
1.67119e-13
1.64875e-13
1.63209e-13
1.60827e-13
1.59311e-13
1.57077e-13
1.5609e-13
1.53798e-13
1.52939e-13
1.50328e-13
1.49757e-13
1.47076e-13
1.46676e-13
1.43706e-13
1.43477e-13
1.40425e-13
1.4031e-13
1.37006e-13
1.3703e-13
1.3348e-13
1.33625e-13
1.3012e-13
1.30411e-13
1.26812e-13
1.27156e-13
1.23628e-13
1.24084e-13
1.20375e-13
1.20694e-13
1.17126e-13
1.17377e-13
1.138e-13
1.13901e-13
1.10406e-13
1.10227e-13
1.07049e-13
1.06857e-13
1.03509e-13
1.0217e-13
1.00021e-13
9.89497e-14
9.12672e-14
9.33767e-14
9.62297e-14
8.31688e-14
7.00347e-14
8.26065e-14
7.52416e-14
2.01109e-13
1.96769e-13
1.92736e-13
1.84867e-13
1.84876e-13
1.80043e-13
1.76972e-13
1.74841e-13
1.71628e-13
1.69668e-13
1.6694e-13
1.65267e-13
1.62803e-13
1.61439e-13
1.58587e-13
1.57347e-13
1.54691e-13
1.53897e-13
1.50885e-13
1.50202e-13
1.47056e-13
1.46591e-13
1.4341e-13
1.42853e-13
1.3959e-13
1.39093e-13
1.35787e-13
1.35341e-13
1.3195e-13
1.31487e-13
1.27917e-13
1.27318e-13
1.23795e-13
1.2314e-13
1.19845e-13
1.19627e-13
1.16664e-13
1.16003e-13
1.13072e-13
1.12536e-13
1.09848e-13
1.09231e-13
1.06402e-13
1.0504e-13
1.02008e-13
1.00451e-13
9.81336e-14
9.61098e-14
9.19836e-14
9.22213e-14
8.95201e-14
7.38426e-14
8.63749e-14
8.48322e-14
6.88365e-14
6.59795e-14
2.09337e-13
2.04426e-13
1.986e-13
1.9185e-13
1.89796e-13
1.84197e-13
1.81188e-13
1.78567e-13
1.7471e-13
1.72543e-13
1.69691e-13
1.67788e-13
1.64446e-13
1.63241e-13
1.59934e-13
1.59306e-13
1.55453e-13
1.55315e-13
1.51224e-13
1.51538e-13
1.46941e-13
1.47765e-13
1.42562e-13
1.43923e-13
1.38375e-13
1.40167e-13
1.34276e-13
1.36429e-13
1.30101e-13
1.32512e-13
1.25882e-13
1.28566e-13
1.21934e-13
1.24846e-13
1.17964e-13
1.20895e-13
1.13778e-13
1.1689e-13
1.10426e-13
1.13105e-13
1.06387e-13
1.08966e-13
1.02669e-13
1.04473e-13
9.89194e-14
1.00267e-13
9.36713e-14
9.40089e-14
8.94273e-14
8.65614e-14
8.01579e-14
8.46714e-14
7.65584e-14
5.92273e-14
6.57834e-14
5.85463e-14
2.17609e-13
2.1448e-13
2.04667e-13
2.01707e-13
1.97613e-13
1.9088e-13
1.88971e-13
1.85002e-13
1.81745e-13
1.78377e-13
1.76856e-13
1.72919e-13
1.71969e-13
1.6806e-13
1.67814e-13
1.63303e-13
1.6367e-13
1.58294e-13
1.59436e-13
1.53252e-13
1.55142e-13
1.48203e-13
1.50614e-13
1.43088e-13
1.45882e-13
1.37834e-13
1.40786e-13
1.32068e-13
1.35548e-13
1.26502e-13
1.30459e-13
1.21607e-13
1.25797e-13
1.16934e-13
1.21081e-13
1.11822e-13
1.1593e-13
1.07431e-13
1.10359e-13
1.02241e-13
1.05377e-13
9.74305e-14
9.97959e-14
9.28338e-14
9.47886e-14
8.81968e-14
8.86011e-14
8.36316e-14
8.3074e-14
7.70318e-14
7.74734e-14
6.68391e-14
6.28508e-14
7.05931e-14
5.16015e-14
4.97279e-14
2.25197e-13
2.19391e-13
2.04912e-13
2.03768e-13
2.00277e-13
1.94095e-13
1.91469e-13
1.88177e-13
1.84666e-13
1.81691e-13
1.78982e-13
1.75996e-13
1.73759e-13
1.70609e-13
1.68258e-13
1.65028e-13
1.63338e-13
1.59787e-13
1.58375e-13
1.54652e-13
1.5353e-13
1.4964e-13
1.48812e-13
1.44327e-13
1.43927e-13
1.39349e-13
1.39192e-13
1.3394e-13
1.33572e-13
1.27698e-13
1.26824e-13
1.19948e-13
1.19123e-13
1.13407e-13
1.14505e-13
1.09806e-13
1.11083e-13
1.0503e-13
1.07184e-13
1.0291e-13
1.04632e-13
9.93256e-14
1.0001e-13
9.43368e-14
9.45882e-14
8.92226e-14
8.94551e-14
8.4214e-14
8.2698e-14
7.62329e-14
7.69295e-14
7.0476e-14
6.67964e-14
5.89817e-14
4.97162e-14
4.28022e-14
2.32824e-13
2.29451e-13
2.19377e-13
2.11087e-13
2.06596e-13
1.98923e-13
1.93834e-13
1.91138e-13
1.86379e-13
1.83986e-13
1.79741e-13
1.78349e-13
1.73767e-13
1.7354e-13
1.68405e-13
1.69054e-13
1.63013e-13
1.64625e-13
1.57366e-13
1.60007e-13
1.51362e-13
1.5477e-13
1.45075e-13
1.49996e-13
1.39603e-13
1.45095e-13
1.33252e-13
1.38835e-13
1.26221e-13
1.33164e-13
1.21566e-13
1.31644e-13
1.2072e-13
1.28772e-13
1.14619e-13
1.21482e-13
1.07722e-13
1.14951e-13
1.02558e-13
1.06545e-13
9.33567e-14
9.97037e-14
8.90288e-14
9.39696e-14
8.44906e-14
8.8015e-14
7.8396e-14
8.04844e-14
7.3222e-14
7.26229e-14
6.38007e-14
5.82905e-14
5.66047e-14
4.75071e-14
3.88192e-14
3.51097e-14
2.39837e-13
2.30688e-13
2.22153e-13
2.12334e-13
2.08585e-13
2.04397e-13
2.00516e-13
1.96412e-13
1.92995e-13
1.89811e-13
1.87177e-13
1.83936e-13
1.81334e-13
1.78161e-13
1.75877e-13
1.72477e-13
1.7006e-13
1.66595e-13
1.64232e-13
1.60492e-13
1.58263e-13
1.54484e-13
1.51953e-13
1.47443e-13
1.44691e-13
1.40426e-13
1.38288e-13
1.34544e-13
1.33337e-13
1.2925e-13
1.26752e-13
1.2116e-13
1.17779e-13
1.13015e-13
1.11155e-13
1.07277e-13
1.05687e-13
1.01827e-13
9.95496e-14
9.68129e-14
9.56097e-14
9.21676e-14
8.96822e-14
8.64987e-14
8.42069e-14
8.09461e-14
7.81896e-14
7.5307e-14
7.19719e-14
6.7709e-14
6.4217e-14
5.99899e-14
5.51917e-14
4.49997e-14
3.85273e-14
2.83458e-14
2.45299e-13
2.33291e-13
2.23034e-13
2.16239e-13
2.10834e-13
2.05952e-13
2.01768e-13
1.98032e-13
1.94684e-13
1.91485e-13
1.88508e-13
1.8552e-13
1.82721e-13
1.79772e-13
1.76997e-13
1.73979e-13
1.71172e-13
1.68038e-13
1.65153e-13
1.61851e-13
1.5887e-13
1.55404e-13
1.52515e-13
1.50007e-13
1.48502e-13
1.45822e-13
1.42104e-13
1.36083e-13
1.30096e-13
1.24291e-13
1.209e-13
1.18378e-13
1.17003e-13
1.1428e-13
1.1152e-13
1.07975e-13
1.0521e-13
1.01849e-13
9.91529e-14
9.59809e-14
9.33967e-14
9.02806e-14
8.77384e-14
8.47404e-14
8.21393e-14
7.90785e-14
7.62704e-14
7.30158e-14
6.97719e-14
6.59496e-14
6.19069e-14
5.70751e-14
5.16487e-14
4.47661e-14
3.46129e-14
2.25401e-14
)
;

boundaryField
{
    top
    {
        type            zeroGradient;
    }
    bottom
    {
        type            zeroGradient;
    }
    rotatingWall
    {
        type            zeroGradient;
    }
    wall
    {
        type            zeroGradient;
    }
    frontAndBack
    {
        type            empty;
    }
}


// ************************************************************************* //
