/*--------------------------------*- C++ -*----------------------------------*\
| =========                 |                                                 |
| \\      /  F ield         | OpenFOAM: The Open Source CFD Toolbox           |
|  \\    /   O peration     | Version:  5.0                                   |
|   \\  /    A nd           | Web:      www.OpenFOAM.org                      |
|    \\/     M anipulation  |                                                 |
\*---------------------------------------------------------------------------*/
FoamFile
{
    version     2.0;
    format      ascii;
    class       volVectorField;
    location    "4.7";
    object      U;
}
// * * * * * * * * * * * * * * * * * * * * * * * * * * * * * * * * * * * * * //

dimensions      [0 1 -1 0 0 0 0];

internalField   nonuniform List<vector> 
25
(
(0.985368 0.00241456 9.08009e-23)
(0.939611 0.000871291 1.29204e-23)
(0.937442 0.000170073 -4.53926e-23)
(0.936087 0.000102591 5.20806e-24)
(0.93283 -0.00212484 8.5214e-24)
(0.789872 0.00554135 -3.4658e-23)
(0.796566 0.00403345 -5.94647e-23)
(0.797959 0.000736758 6.57434e-23)
(0.798567 0.000340163 6.53968e-24)
(0.795583 -0.000823524 -1.4858e-22)
(0.593506 0.00254878 4.81441e-23)
(0.610722 0.00306307 4.06497e-23)
(0.613773 0.000478138 3.03821e-23)
(0.614966 2.7551e-05 -1.23599e-24)
(0.613648 -0.000456742 -5.72657e-23)
(0.396744 -0.000590884 1.2299e-22)
(0.405155 0.00113931 1.18359e-23)
(0.407871 0.000148286 -2.58042e-24)
(0.407954 -0.000237197 -2.14726e-23)
(0.410056 0.00278345 -1.85502e-22)
(0.199603 -0.0051668 7.95564e-25)
(0.200866 0.000632838 1.65038e-23)
(0.202405 0.000111793 1.10188e-24)
(0.20125 -1.56414e-05 0)
(0.205537 0.0115103 0)
)
;

boundaryField
{
    top
    {
        type            fixedValue;
        value           uniform (0 0 0);
    }
    bottom
    {
        type            symmetryPlane;
    }
    inlet
    {
        type            pressureInletVelocity;
        value           nonuniform 0();
    }
    outlet
    {
        type            inletOutlet;
        inletValue      uniform (1 0 0);
        value           nonuniform List<vector> 5((0.93283 -0.00212484 8.5214e-24) (0.795583 -0.000823524 -1.4858e-22) (0.613648 -0.000456742 -5.72657e-23) (0.410056 0.00278345 -1.85502e-22) (0.205537 0.0115103 0));
    }
    frontAndBack
    {
        type            empty;
    }
    procBoundary1to0
    {
        type            processor;
        value           nonuniform List<vector> 5((0.981194 -0.00205176 3.29813e-23) (0.786648 -0.00135349 -4.09477e-23) (0.591119 0.000274306 -5.46204e-23) (0.395296 0.00143894 -5.21573e-23) (0.199138 0.00565553 3.4053e-23));
    }
}


// ************************************************************************* //
