/*--------------------------------*- C++ -*----------------------------------*\
| =========                 |                                                 |
| \\      /  F ield         | OpenFOAM: The Open Source CFD Toolbox           |
|  \\    /   O peration     | Version:  5.0                                   |
|   \\  /    A nd           | Web:      www.OpenFOAM.org                      |
|    \\/     M anipulation  |                                                 |
\*---------------------------------------------------------------------------*/
FoamFile
{
    version     2.0;
    format      ascii;
    class       volVectorField;
    location    "331";
    object      U;
}
// * * * * * * * * * * * * * * * * * * * * * * * * * * * * * * * * * * * * * //

dimensions      [0 1 -1 0 0 0 0];

internalField   nonuniform List<vector> 
1568
(
(1.0206e-15 -5.47883e-15 0)
(1.47059e-14 -1.11575e-14 0)
(4.29145e-14 -1.78712e-14 0)
(8.14788e-14 -2.15168e-14 0)
(1.25562e-13 -2.42615e-14 0)
(1.7632e-13 -2.78971e-14 0)
(2.32731e-13 -3.00218e-14 0)
(2.92578e-13 -3.16791e-14 0)
(3.55478e-13 -3.30985e-14 0)
(4.20602e-13 -3.39423e-14 0)
(4.86898e-13 -3.43622e-14 0)
(5.5362e-13 -3.4417e-14 0)
(6.20102e-13 -3.41021e-14 0)
(6.85648e-13 -3.34475e-14 0)
(7.49614e-13 -3.24972e-14 0)
(8.11435e-13 -3.12459e-14 0)
(8.70564e-13 -2.97277e-14 0)
(9.26506e-13 -2.79709e-14 0)
(9.78811e-13 -2.59917e-14 0)
(1.02707e-12 -2.3809e-14 0)
(1.07092e-12 -2.1445e-14 0)
(1.11006e-12 -1.89255e-14 0)
(1.14421e-12 -1.62053e-14 0)
(1.17289e-12 -1.28677e-14 0)
(1.19612e-12 -9.30331e-15 0)
(1.21397e-12 -6.12025e-15 0)
(1.22627e-12 -3.08377e-15 0)
(1.23239e-12 -8.2962e-16 0)
(1.23242e-12 8.05514e-16 0)
(1.2264e-12 3.03366e-15 0)
(1.21419e-12 6.06575e-15 0)
(1.19643e-12 9.2369e-15 0)
(1.17327e-12 1.28154e-14 0)
(1.14466e-12 1.6157e-14 0)
(1.11058e-12 1.88881e-14 0)
(1.07153e-12 2.13962e-14 0)
(1.02776e-12 2.37761e-14 0)
(9.7956e-13 2.59467e-14 0)
(9.27326e-13 2.79436e-14 0)
(8.71434e-13 2.97041e-14 0)
(8.12349e-13 3.12272e-14 0)
(7.50584e-13 3.24665e-14 0)
(6.86664e-13 3.34348e-14 0)
(6.21155e-13 3.40871e-14 0)
(5.54698e-13 3.44073e-14 0)
(4.87972e-13 3.43512e-14 0)
(4.21705e-13 3.39167e-14 0)
(3.56682e-13 3.30595e-14 0)
(2.9373e-13 3.17697e-14 0)
(2.33744e-13 2.99547e-14 0)
(1.77771e-13 2.76228e-14 0)
(1.26855e-13 2.47853e-14 0)
(8.21857e-14 2.11492e-14 0)
(4.47093e-14 1.70565e-14 0)
(1.76182e-14 1.13684e-14 0)
(2.32268e-15 4.72089e-15 0)
(6.12394e-16 -1.51798e-14 0)
(1.41181e-14 -3.33881e-14 0)
(3.89136e-14 -4.83506e-14 0)
(7.20058e-14 -6.02249e-14 0)
(1.14446e-13 -7.10019e-14 0)
(1.61813e-13 -7.92008e-14 0)
(2.13581e-13 -8.58206e-14 0)
(2.69569e-13 -9.0996e-14 0)
(3.28256e-13 -9.47469e-14 0)
(3.88776e-13 -9.72053e-14 0)
(4.50474e-13 -9.84363e-14 0)
(5.12692e-13 -9.85889e-14 0)
(5.74606e-13 -9.7711e-14 0)
(6.35603e-13 -9.5846e-14 0)
(6.95168e-13 -9.30738e-14 0)
(7.52709e-13 -8.94952e-14 0)
(8.0773e-13 -8.51388e-14 0)
(8.59787e-13 -8.00864e-14 0)
(9.08456e-13 -7.43897e-14 0)
(9.53347e-13 -6.81354e-14 0)
(9.94119e-13 -6.13578e-14 0)
(1.03046e-12 -5.41427e-14 0)
(1.06211e-12 -4.65517e-14 0)
(1.08887e-12 -3.87006e-14 0)
(1.11067e-12 -3.09347e-14 0)
(1.12731e-12 -2.29336e-14 0)
(1.13864e-12 -1.42037e-14 0)
(1.14431e-12 -4.8305e-15 0)
(1.14436e-12 4.70896e-15 0)
(1.13877e-12 1.40989e-14 0)
(1.12751e-12 2.28406e-14 0)
(1.11092e-12 3.08407e-14 0)
(1.08921e-12 3.85905e-14 0)
(1.06255e-12 4.64385e-14 0)
(1.03097e-12 5.4031e-14 0)
(9.94688e-13 6.12504e-14 0)
(9.53988e-13 6.80427e-14 0)
(9.09173e-13 7.42976e-14 0)
(8.6055e-13 8.00015e-14 0)
(8.08563e-13 8.50601e-14 0)
(7.53603e-13 8.94269e-14 0)
(6.9609e-13 9.30168e-14 0)
(6.36564e-13 9.58018e-14 0)
(5.75585e-13 9.76604e-14 0)
(5.13705e-13 9.85663e-14 0)
(4.51573e-13 9.84286e-14 0)
(3.89862e-13 9.71825e-14 0)
(3.29301e-13 9.47161e-14 0)
(2.70681e-13 9.09652e-14 0)
(2.14912e-13 8.5844e-14 0)
(1.62861e-13 7.91655e-14 0)
(1.15513e-13 7.06722e-14 0)
(7.40818e-14 6.05327e-14 0)
(4.00749e-14 4.78709e-14 0)
(1.59669e-14 3.21978e-14 0)
(6.83307e-16 1.3488e-14 0)
(-8.24183e-17 -2.12962e-14 0)
(1.2242e-14 -5.14064e-14 0)
(3.35436e-14 -7.71253e-14 0)
(6.53813e-14 -9.72315e-14 0)
(1.02429e-13 -1.13752e-13 0)
(1.46184e-13 -1.27611e-13 0)
(1.94498e-13 -1.38239e-13 0)
(2.4603e-13 -1.46568e-13 0)
(3.00261e-13 -1.52652e-13 0)
(3.56475e-13 -1.56596e-13 0)
(4.13685e-13 -1.58598e-13 0)
(4.71223e-13 -1.58814e-13 0)
(5.28594e-13 -1.57361e-13 0)
(5.85155e-13 -1.54337e-13 0)
(6.40302e-13 -1.49894e-13 0)
(6.93587e-13 -1.44105e-13 0)
(7.44552e-13 -1.37089e-13 0)
(7.92749e-13 -1.28948e-13 0)
(8.37791e-13 -1.19785e-13 0)
(8.79342e-13 -1.09688e-13 0)
(9.17086e-13 -9.87701e-14 0)
(9.50739e-13 -8.7118e-14 0)
(9.80055e-13 -7.484e-14 0)
(1.00488e-12 -6.2075e-14 0)
(1.02499e-12 -4.89944e-14 0)
(1.04015e-12 -3.55444e-14 0)
(1.05029e-12 -2.15932e-14 0)
(1.05541e-12 -7.29156e-15 0)
(1.05543e-12 7.11932e-15 0)
(1.05038e-12 2.1422e-14 0)
(1.04031e-12 3.53976e-14 0)
(1.02524e-12 4.8853e-14 0)
(1.00518e-12 6.19579e-14 0)
(9.80416e-13 7.47168e-14 0)
(9.51164e-13 8.70121e-14 0)
(9.17589e-13 9.86496e-14 0)
(8.799e-13 1.09591e-13 0)
(8.38398e-13 1.19675e-13 0)
(7.93419e-13 1.28849e-13 0)
(7.45261e-13 1.36989e-13 0)
(6.94333e-13 1.4401e-13 0)
(6.41097e-13 1.49796e-13 0)
(5.85974e-13 1.54263e-13 0)
(5.29457e-13 1.57282e-13 0)
(4.72127e-13 1.58756e-13 0)
(4.14552e-13 1.5855e-13 0)
(3.57363e-13 1.56536e-13 0)
(3.01257e-13 1.52584e-13 0)
(2.47007e-13 1.46553e-13 0)
(1.95357e-13 1.38163e-13 0)
(1.4715e-13 1.27328e-13 0)
(1.03756e-13 1.138e-13 0)
(6.59119e-14 9.68857e-14 0)
(3.45378e-14 7.63392e-14 0)
(1.31907e-14 5.10912e-14 0)
(2.13272e-16 2.07171e-14 0)
(-2.2811e-16 -2.63316e-14 0)
(1.15276e-14 -6.83519e-14 0)
(2.98802e-14 -1.0145e-13 0)
(5.73518e-14 -1.30152e-13 0)
(9.19996e-14 -1.52858e-13 0)
(1.31637e-13 -1.71259e-13 0)
(1.75578e-13 -1.86038e-13 0)
(2.22852e-13 -1.97435e-13 0)
(2.72761e-13 -2.05607e-13 0)
(3.24327e-13 -2.10934e-13 0)
(3.76879e-13 -2.13709e-13 0)
(4.29896e-13 -2.13989e-13 0)
(4.82684e-13 -2.11996e-13 0)
(5.3466e-13 -2.07938e-13 0)
(5.8541e-13 -2.01929e-13 0)
(6.34441e-13 -1.94106e-13 0)
(6.81299e-13 -1.84651e-13 0)
(7.25619e-13 -1.73669e-13 0)
(7.67053e-13 -1.61318e-13 0)
(8.05261e-13 -1.47713e-13 0)
(8.39957e-13 -1.33009e-13 0)
(8.70894e-13 -1.17322e-13 0)
(8.97855e-13 -1.00812e-13 0)
(9.20644e-13 -8.35968e-14 0)
(9.39054e-13 -6.58744e-14 0)
(9.52886e-13 -4.76163e-14 0)
(9.62084e-13 -2.88554e-14 0)
(9.66693e-13 -9.71802e-15 0)
(9.66725e-13 9.50319e-15 0)
(9.6218e-13 2.86523e-14 0)
(9.53027e-13 4.74215e-14 0)
(9.39243e-13 6.56914e-14 0)
(9.20894e-13 8.34173e-14 0)
(8.98166e-13 1.00643e-13 0)
(8.7125e-13 1.17158e-13 0)
(8.40348e-13 1.32859e-13 0)
(8.05703e-13 1.47554e-13 0)
(7.67538e-13 1.6118e-13 0)
(7.26141e-13 1.73535e-13 0)
(6.81864e-13 1.84523e-13 0)
(6.35047e-13 1.93992e-13 0)
(5.86047e-13 2.01829e-13 0)
(5.35321e-13 2.0784e-13 0)
(4.83347e-13 2.11942e-13 0)
(4.306e-13 2.13922e-13 0)
(3.77628e-13 2.13649e-13 0)
(3.25041e-13 2.10935e-13 0)
(2.73496e-13 2.05577e-13 0)
(2.2359e-13 1.97334e-13 0)
(1.76264e-13 1.86034e-13 0)
(1.32435e-13 1.71258e-13 0)
(9.25616e-14 1.52618e-13 0)
(5.8069e-14 1.29649e-13 0)
(3.0496e-14 1.01674e-13 0)
(1.14021e-14 6.72394e-14 0)
(2.00071e-16 2.65568e-14 0)
(4.17693e-16 -3.15208e-14 0)
(9.49751e-15 -8.15164e-14 0)
(2.63871e-14 -1.24454e-13 0)
(5.10742e-14 -1.59008e-13 0)
(8.17979e-14 -1.87801e-13 0)
(1.17478e-13 -2.11069e-13 0)
(1.57235e-13 -2.2957e-13 0)
(2.00136e-13 -2.43725e-13 0)
(2.45481e-13 -2.53978e-13 0)
(2.92417e-13 -2.60702e-13 0)
(3.40305e-13 -2.64107e-13 0)
(3.88591e-13 -2.64473e-13 0)
(4.36679e-13 -2.62055e-13 0)
(4.84095e-13 -2.57022e-13 0)
(5.30371e-13 -2.49557e-13 0)
(5.75054e-13 -2.39901e-13 0)
(6.17781e-13 -2.28184e-13 0)
(6.5819e-13 -2.14601e-13 0)
(6.95941e-13 -1.9931e-13 0)
(7.30758e-13 -1.82505e-13 0)
(7.62377e-13 -1.64318e-13 0)
(7.9056e-13 -1.44941e-13 0)
(8.15103e-13 -1.24523e-13 0)
(8.35821e-13 -1.03254e-13 0)
(8.52543e-13 -8.1255e-14 0)
(8.65123e-13 -5.86519e-14 0)
(8.73507e-13 -3.54847e-14 0)
(8.77709e-13 -1.19518e-14 0)
(8.77727e-13 1.17183e-14 0)
(8.73562e-13 3.52483e-14 0)
(8.65229e-13 5.84115e-14 0)
(8.52698e-13 8.10253e-14 0)
(8.36011e-13 1.03025e-13 0)
(8.15323e-13 1.24301e-13 0)
(7.90819e-13 1.44716e-13 0)
(7.62673e-13 1.64108e-13 0)
(7.31091e-13 1.82309e-13 0)
(6.96312e-13 1.99126e-13 0)
(6.58585e-13 2.14431e-13 0)
(6.18205e-13 2.28034e-13 0)
(5.75503e-13 2.39766e-13 0)
(5.30839e-13 2.49444e-13 0)
(4.84604e-13 2.56927e-13 0)
(4.37203e-13 2.61981e-13 0)
(3.89109e-13 2.64438e-13 0)
(3.40857e-13 2.64079e-13 0)
(2.92948e-13 2.60682e-13 0)
(2.45986e-13 2.53987e-13 0)
(2.00749e-13 2.43742e-13 0)
(1.57804e-13 2.2957e-13 0)
(1.17819e-13 2.11048e-13 0)
(8.22252e-14 1.878e-13 0)
(5.16729e-14 1.591e-13 0)
(2.64275e-14 1.23967e-13 0)
(9.73116e-15 8.1515e-14 0)
(9.79611e-17 3.15915e-14 0)
(-1.4374e-17 -3.60426e-14 0)
(8.45428e-15 -9.39726e-14 0)
(2.30199e-14 -1.43881e-13 0)
(4.49225e-14 -1.85197e-13 0)
(7.20565e-14 -2.19276e-13 0)
(1.03893e-13 -2.46878e-13 0)
(1.39413e-13 -2.68864e-13 0)
(1.77869e-13 -2.8568e-13 0)
(2.18561e-13 -2.97852e-13 0)
(2.6074e-13 -3.05841e-13 0)
(3.0384e-13 -3.09915e-13 0)
(3.47331e-13 -3.10395e-13 0)
(3.90672e-13 -3.07552e-13 0)
(4.33408e-13 -3.01635e-13 0)
(4.75108e-13 -2.92898e-13 0)
(5.15392e-13 -2.81541e-13 0)
(5.53909e-13 -2.67778e-13 0)
(5.90327e-13 -2.51829e-13 0)
(6.24353e-13 -2.33886e-13 0)
(6.55727e-13 -2.14137e-13 0)
(6.84214e-13 -1.9279e-13 0)
(7.09593e-13 -1.70034e-13 0)
(7.31682e-13 -1.46058e-13 0)
(7.50325e-13 -1.21048e-13 0)
(7.65364e-13 -9.51785e-14 0)
(7.76687e-13 -6.85982e-14 0)
(7.84252e-13 -4.1456e-14 0)
(7.88042e-13 -1.3949e-14 0)
(7.88054e-13 1.36798e-14 0)
(7.84292e-13 4.11968e-14 0)
(7.76755e-13 6.83497e-14 0)
(7.65456e-13 9.4932e-14 0)
(7.50448e-13 1.20806e-13 0)
(7.31835e-13 1.45826e-13 0)
(7.0977e-13 1.69815e-13 0)
(6.84416e-13 1.92581e-13 0)
(6.55951e-13 2.13943e-13 0)
(6.24596e-13 2.33698e-13 0)
(5.90592e-13 2.51655e-13 0)
(5.54196e-13 2.67622e-13 0)
(5.15701e-13 2.814e-13 0)
(4.75435e-13 2.9278e-13 0)
(4.33744e-13 3.01544e-13 0)
(3.91021e-13 3.07472e-13 0)
(3.47698e-13 3.1034e-13 0)
(3.04216e-13 3.09888e-13 0)
(2.61104e-13 3.05834e-13 0)
(2.18949e-13 2.9789e-13 0)
(1.78219e-13 2.85705e-13 0)
(1.39694e-13 2.68857e-13 0)
(1.04337e-13 2.46935e-13 0)
(7.23998e-14 2.19304e-13 0)
(4.48623e-14 1.85184e-13 0)
(2.33312e-14 1.43841e-13 0)
(8.68409e-15 9.40657e-14 0)
(9.30081e-17 3.59704e-14 0)
(-2.26802e-17 -3.96746e-14 0)
(7.41953e-15 -1.04952e-13 0)
(2.00166e-14 -1.61049e-13 0)
(3.90317e-14 -2.08124e-13 0)
(6.28459e-14 -2.46935e-13 0)
(9.07246e-14 -2.78535e-13 0)
(1.21996e-13 -3.03686e-13 0)
(1.55994e-13 -3.22963e-13 0)
(1.9197e-13 -3.36954e-13 0)
(2.29319e-13 -3.46125e-13 0)
(2.67558e-13 -3.50808e-13 0)
(3.06159e-13 -3.51394e-13 0)
(3.44638e-13 -3.48209e-13 0)
(3.82589e-13 -3.41534e-13 0)
(4.19642e-13 -3.31636e-13 0)
(4.55442e-13 -3.18768e-13 0)
(4.89661e-13 -3.03184e-13 0)
(5.22016e-13 -2.85113e-13 0)
(5.52251e-13 -2.64784e-13 0)
(5.80125e-13 -2.42415e-13 0)
(6.0542e-13 -2.18236e-13 0)
(6.27957e-13 -1.92456e-13 0)
(6.47569e-13 -1.65287e-13 0)
(6.64107e-13 -1.3694e-13 0)
(6.7745e-13 -1.07622e-13 0)
(6.87506e-13 -7.75104e-14 0)
(6.94225e-13 -4.68086e-14 0)
(6.97591e-13 -1.57366e-14 0)
(6.97603e-13 1.54628e-14 0)
(6.94255e-13 4.65367e-14 0)
(6.8755e-13 7.72429e-14 0)
(6.77509e-13 1.07362e-13 0)
(6.64181e-13 1.3669e-13 0)
(6.47656e-13 1.65042e-13 0)
(6.28056e-13 1.92221e-13 0)
(6.05531e-13 2.18009e-13 0)
(5.80244e-13 2.422e-13 0)
(5.52384e-13 2.64586e-13 0)
(5.22163e-13 2.84936e-13 0)
(4.89819e-13 3.03028e-13 0)
(4.55611e-13 3.18635e-13 0)
(4.19827e-13 3.31524e-13 0)
(3.82789e-13 3.41446e-13 0)
(3.44841e-13 3.48157e-13 0)
(3.06368e-13 3.51372e-13 0)
(2.67794e-13 3.50804e-13 0)
(2.29552e-13 3.46142e-13 0)
(1.9215e-13 3.37017e-13 0)
(1.56219e-13 3.23032e-13 0)
(1.22272e-13 3.03781e-13 0)
(9.08015e-14 2.78642e-13 0)
(6.2941e-14 2.46993e-13 0)
(3.93488e-14 2.08211e-13 0)
(1.99999e-14 1.61197e-13 0)
(7.23791e-15 1.04847e-13 0)
(9.4061e-17 3.97988e-14 0)
(9.26991e-17 -4.29302e-14 0)
(6.29632e-15 -1.14163e-13 0)
(1.71196e-14 -1.75956e-13 0)
(3.34005e-14 -2.27898e-13 0)
(5.38799e-14 -2.70983e-13 0)
(7.79527e-14 -3.06129e-13 0)
(1.05019e-13 -3.34093e-13 0)
(1.34462e-13 -3.55601e-13 0)
(1.65677e-13 -3.7124e-13 0)
(1.98169e-13 -3.81463e-13 0)
(2.31466e-13 -3.86731e-13 0)
(2.65074e-13 -3.87456e-13 0)
(2.98601e-13 -3.83984e-13 0)
(3.31696e-13 -3.76639e-13 0)
(3.64009e-13 -3.65724e-13 0)
(3.95225e-13 -3.51536e-13 0)
(4.25071e-13 -3.34342e-13 0)
(4.53294e-13 -3.14399e-13 0)
(4.79661e-13 -2.91962e-13 0)
(5.03965e-13 -2.67288e-13 0)
(5.26022e-13 -2.40608e-13 0)
(5.45669e-13 -2.12159e-13 0)
(5.6276e-13 -1.82187e-13 0)
(5.77168e-13 -1.50913e-13 0)
(5.88796e-13 -1.18563e-13 0)
(5.97567e-13 -8.5359e-14 0)
(6.03431e-13 -5.15269e-14 0)
(6.06369e-13 -1.73057e-14 0)
(6.06369e-13 1.70452e-14 0)
(6.03436e-13 5.12626e-14 0)
(5.97579e-13 8.50947e-14 0)
(5.88813e-13 1.18299e-13 0)
(5.77187e-13 1.50653e-13 0)
(5.62783e-13 1.81932e-13 0)
(5.45696e-13 2.11914e-13 0)
(5.26052e-13 2.40372e-13 0)
(5.04002e-13 2.67067e-13 0)
(4.79706e-13 2.91762e-13 0)
(4.53343e-13 3.14216e-13 0)
(4.25128e-13 3.34182e-13 0)
(3.95287e-13 3.51404e-13 0)
(3.64076e-13 3.65621e-13 0)
(3.31776e-13 3.76561e-13 0)
(2.9869e-13 3.83935e-13 0)
(2.65159e-13 3.8744e-13 0)
(2.31551e-13 3.86749e-13 0)
(1.98274e-13 3.81499e-13 0)
(1.65801e-13 3.71305e-13 0)
(1.34545e-13 3.55722e-13 0)
(1.05061e-13 3.3421e-13 0)
(7.81189e-14 3.06239e-13 0)
(5.40098e-14 2.71165e-13 0)
(3.3297e-14 2.28024e-13 0)
(1.7181e-14 1.76036e-13 0)
(6.38195e-15 1.14267e-13 0)
(4.32564e-17 4.30438e-14 0)
(3.1637e-17 -4.57397e-14 0)
(5.2583e-15 -1.22054e-13 0)
(1.43147e-14 -1.88633e-13 0)
(2.79797e-14 -2.44791e-13 0)
(4.52148e-14 -2.91513e-13 0)
(6.55062e-14 -3.29715e-13 0)
(8.83518e-14 -3.60204e-13 0)
(1.13246e-13 -3.8368e-13 0)
(1.39712e-13 -4.00739e-13 0)
(1.67281e-13 -4.11911e-13 0)
(1.95537e-13 -4.17719e-13 0)
(2.24099e-13 -4.18576e-13 0)
(2.52612e-13 -4.14863e-13 0)
(2.80758e-13 -4.0695e-13 0)
(3.08246e-13 -3.95175e-13 0)
(3.34807e-13 -3.79845e-13 0)
(3.60206e-13 -3.61258e-13 0)
(3.84222e-13 -3.39701e-13 0)
(4.06654e-13 -3.15452e-13 0)
(4.27331e-13 -2.88773e-13 0)
(4.46098e-13 -2.59931e-13 0)
(4.62806e-13 -2.29183e-13 0)
(4.77337e-13 -1.9678e-13 0)
(4.89594e-13 -1.62973e-13 0)
(4.99484e-13 -1.28009e-13 0)
(5.06944e-13 -9.21363e-14 0)
(5.11936e-13 -5.56023e-14 0)
(5.14436e-13 -1.86654e-14 0)
(5.14432e-13 1.84068e-14 0)
(5.11926e-13 5.53502e-14 0)
(5.06928e-13 9.18894e-14 0)
(4.99463e-13 1.27767e-13 0)
(4.8957e-13 1.62736e-13 0)
(4.7731e-13 1.9655e-13 0)
(4.62773e-13 2.28961e-13 0)
(4.46062e-13 2.59721e-13 0)
(4.27294e-13 2.88578e-13 0)
(4.06614e-13 3.15268e-13 0)
(3.8418e-13 3.39535e-13 0)
(3.60167e-13 3.61111e-13 0)
(3.34771e-13 3.79718e-13 0)
(3.08213e-13 3.95073e-13 0)
(2.80731e-13 4.06875e-13 0)
(2.52589e-13 4.14811e-13 0)
(2.24083e-13 4.18552e-13 0)
(1.95535e-13 4.17734e-13 0)
(1.67277e-13 4.11958e-13 0)
(1.39704e-13 4.00798e-13 0)
(1.13269e-13 3.8377e-13 0)
(8.83908e-14 3.60343e-13 0)
(6.54594e-14 3.29874e-13 0)
(4.51887e-14 2.91618e-13 0)
(2.81259e-14 2.44926e-13 0)
(1.42985e-14 1.88784e-13 0)
(5.16588e-15 1.22082e-13 0)
(5.59443e-17 4.58041e-14 0)
(1.0327e-17 -4.80035e-14 0)
(4.26505e-15 -1.28551e-13 0)
(1.16021e-14 -1.99064e-13 0)
(2.27276e-14 -2.58724e-13 0)
(3.67608e-14 -3.08526e-13 0)
(5.32911e-14 -3.49319e-13 0)
(7.19449e-14 -3.81932e-13 0)
(9.23256e-14 -4.07055e-13 0)
(1.14014e-13 -4.25324e-13 0)
(1.36614e-13 -4.37344e-13 0)
(1.598e-13 -4.4362e-13 0)
(1.83253e-13 -4.44584e-13 0)
(2.06677e-13 -4.40686e-13 0)
(2.29805e-13 -4.32315e-13 0)
(2.524e-13 -4.1982e-13 0)
(2.74237e-13 -4.03537e-13 0)
(2.95116e-13 -3.83788e-13 0)
(3.14859e-13 -3.60882e-13 0)
(3.33305e-13 -3.3511e-13 0)
(3.50304e-13 -3.06757e-13 0)
(3.65725e-13 -2.76104e-13 0)
(3.7946e-13 -2.43427e-13 0)
(3.91406e-13 -2.0899e-13 0)
(4.01475e-13 -1.73066e-13 0)
(4.096e-13 -1.3592e-13 0)
(4.15731e-13 -9.78127e-14 0)
(4.19833e-13 -5.90124e-14 0)
(4.21886e-13 -1.97945e-14 0)
(4.21882e-13 1.95632e-14 0)
(4.19818e-13 5.87814e-14 0)
(4.157e-13 9.75822e-14 0)
(4.09553e-13 1.35695e-13 0)
(4.01413e-13 1.72848e-13 0)
(3.91331e-13 2.08778e-13 0)
(3.79375e-13 2.43222e-13 0)
(3.65632e-13 2.75909e-13 0)
(3.50199e-13 3.06573e-13 0)
(3.33192e-13 3.3494e-13 0)
(3.14743e-13 3.60729e-13 0)
(2.94997e-13 3.83655e-13 0)
(2.74116e-13 4.03424e-13 0)
(2.52279e-13 4.19728e-13 0)
(2.29689e-13 4.32249e-13 0)
(2.06566e-13 4.40648e-13 0)
(1.83152e-13 4.44575e-13 0)
(1.59705e-13 4.43633e-13 0)
(1.3652e-13 4.37392e-13 0)
(1.1395e-13 4.25408e-13 0)
(9.22758e-14 4.07156e-13 0)
(7.18728e-14 3.82042e-13 0)
(5.32796e-14 3.49464e-13 0)
(3.67713e-14 3.08724e-13 0)
(2.2638e-14 2.58869e-13 0)
(1.16042e-14 1.99136e-13 0)
(4.29615e-15 1.28663e-13 0)
(2.8026e-17 4.8056e-14 0)
(1.71097e-17 -4.98004e-14 0)
(3.30364e-15 -1.33725e-13 0)
(8.97965e-15 -2.07355e-13 0)
(1.75771e-14 -2.69838e-13 0)
(2.8451e-14 -3.22099e-13 0)
(4.12912e-14 -3.64972e-13 0)
(5.57874e-14 -3.99277e-13 0)
(7.16576e-14 -4.2574e-13 0)
(8.854e-14 -4.4502e-13 0)
(1.06134e-13 -4.5772e-13 0)
(1.24229e-13 -4.64383e-13 0)
(1.42527e-13 -4.65461e-13 0)
(1.608e-13 -4.61412e-13 0)
(1.78854e-13 -4.52678e-13 0)
(1.965e-13 -4.39607e-13 0)
(2.13553e-13 -4.22563e-13 0)
(2.29858e-13 -4.01881e-13 0)
(2.45276e-13 -3.77888e-13 0)
(2.59678e-13 -3.50889e-13 0)
(2.72952e-13 -3.21194e-13 0)
(2.84995e-13 -2.89085e-13 0)
(2.95716e-13 -2.54857e-13 0)
(3.05039e-13 -2.18791e-13 0)
(3.12898e-13 -1.81169e-13 0)
(3.19243e-13 -1.42265e-13 0)
(3.24031e-13 -1.02366e-13 0)
(3.27234e-13 -6.17469e-14 0)
(3.28832e-13 -2.06978e-14 0)
(3.2882e-13 2.04979e-14 0)
(3.27198e-13 6.15468e-14 0)
(3.23976e-13 1.02165e-13 0)
(3.19171e-13 1.42065e-13 0)
(3.12808e-13 1.8097e-13 0)
(3.04929e-13 2.18598e-13 0)
(2.95587e-13 2.5467e-13 0)
(2.8485e-13 2.88909e-13 0)
(2.72794e-13 3.21025e-13 0)
(2.5951e-13 3.50736e-13 0)
(2.45098e-13 3.77748e-13 0)
(2.29675e-13 4.01758e-13 0)
(2.13364e-13 4.22457e-13 0)
(1.9631e-13 4.39524e-13 0)
(1.78669e-13 4.52617e-13 0)
(1.60619e-13 4.61377e-13 0)
(1.42346e-13 4.65449e-13 0)
(1.2407e-13 4.64397e-13 0)
(1.05995e-13 4.57767e-13 0)
(8.83924e-14 4.45091e-13 0)
(7.15331e-14 4.2583e-13 0)
(5.57247e-14 3.99406e-13 0)
(4.12223e-14 3.65096e-13 0)
(2.83584e-14 3.22195e-13 0)
(1.75869e-14 2.69983e-13 0)
(8.98548e-15 2.0751e-13 0)
(3.2406e-15 1.33747e-13 0)
(3.60617e-17 4.98639e-14 0)
(1.00284e-18 -5.11487e-14 0)
(2.3626e-15 -1.37592e-13 0)
(6.39418e-15 -2.13567e-13 0)
(1.25207e-14 -2.78165e-13 0)
(2.0291e-14 -3.32254e-13 0)
(2.94593e-14 -3.76696e-13 0)
(3.98118e-14 -4.12294e-13 0)
(5.11551e-14 -4.39784e-13 0)
(6.32354e-14 -4.5984e-13 0)
(7.58258e-14 -4.7306e-13 0)
(8.88027e-14 -4.80017e-13 0)
(1.01876e-13 -4.81182e-13 0)
(1.14993e-13 -4.77032e-13 0)
(1.2792e-13 -4.68021e-13 0)
(1.40569e-13 -4.54518e-13 0)
(1.5279e-13 -4.36894e-13 0)
(1.64475e-13 -4.1551e-13 0)
(1.75525e-13 -3.90698e-13 0)
(1.85845e-13 -3.6278e-13 0)
(1.95355e-13 -3.32064e-13 0)
(2.03983e-13 -2.98862e-13 0)
(2.11663e-13 -2.63463e-13 0)
(2.18343e-13 -2.26168e-13 0)
(2.23974e-13 -1.87262e-13 0)
(2.28517e-13 -1.4704e-13 0)
(2.31942e-13 -1.0579e-13 0)
(2.34232e-13 -6.38045e-14 0)
(2.35374e-13 -2.13738e-14 0)
(2.35362e-13 2.12036e-14 0)
(2.34194e-13 6.36336e-14 0)
(2.31875e-13 1.05623e-13 0)
(2.2842e-13 1.46874e-13 0)
(2.23853e-13 1.87099e-13 0)
(2.182e-13 2.26008e-13 0)
(2.11502e-13 2.63309e-13 0)
(2.03801e-13 2.98713e-13 0)
(1.95153e-13 3.31926e-13 0)
(1.85629e-13 3.62649e-13 0)
(1.75296e-13 3.90578e-13 0)
(1.64237e-13 4.15403e-13 0)
(1.52546e-13 4.36802e-13 0)
(1.40322e-13 4.54441e-13 0)
(1.27676e-13 4.67963e-13 0)
(1.14752e-13 4.76993e-13 0)
(1.01643e-13 4.81165e-13 0)
(8.85895e-14 4.80026e-13 0)
(7.56208e-14 4.73083e-13 0)
(6.30581e-14 4.59891e-13 0)
(5.10222e-14 4.39867e-13 0)
(3.96579e-14 4.12373e-13 0)
(2.9331e-14 3.76797e-13 0)
(2.02753e-14 3.32393e-13 0)
(1.24898e-14 2.78244e-13 0)
(6.32811e-15 2.1361e-13 0)
(2.34298e-15 1.3766e-13 0)
(-1.96274e-18 5.11825e-14 0)
(-8.51852e-18 -5.20416e-14 0)
(1.42999e-15 -1.40153e-13 0)
(3.85196e-15 -2.17699e-13 0)
(7.53304e-15 -2.8369e-13 0)
(1.22156e-14 -3.39018e-13 0)
(1.77281e-14 -3.84513e-13 0)
(2.39488e-14 -4.20986e-13 0)
(3.0779e-14 -4.49167e-13 0)
(3.80451e-14 -4.69734e-13 0)
(4.56132e-14 -4.833e-13 0)
(5.35716e-14 -4.90394e-13 0)
(6.11929e-14 -4.91577e-13 0)
(6.92517e-14 -4.87462e-13 0)
(7.70124e-14 -4.78275e-13 0)
(8.46229e-14 -4.64482e-13 0)
(9.19756e-14 -4.46473e-13 0)
(9.90027e-14 -4.24619e-13 0)
(1.0565e-13 -3.99259e-13 0)
(1.11861e-13 -3.70726e-13 0)
(1.17581e-13 -3.39333e-13 0)
(1.22771e-13 -3.05395e-13 0)
(1.27392e-13 -2.69215e-13 0)
(1.31406e-13 -2.31097e-13 0)
(1.34788e-13 -1.91335e-13 0)
(1.37517e-13 -1.50232e-13 0)
(1.39575e-13 -1.08076e-13 0)
(1.40948e-13 -6.51729e-14 0)
(1.41628e-13 -2.18169e-14 0)
(1.41609e-13 2.16871e-14 0)
(1.40898e-13 6.50409e-14 0)
(1.39496e-13 1.07943e-13 0)
(1.3741e-13 1.50098e-13 0)
(1.34653e-13 1.91206e-13 0)
(1.31241e-13 2.30969e-13 0)
(1.27199e-13 2.69093e-13 0)
(1.22557e-13 3.05274e-13 0)
(1.17347e-13 3.39219e-13 0)
(1.11607e-13 3.70618e-13 0)
(1.05382e-13 3.9916e-13 0)
(9.87238e-14 4.24529e-13 0)
(9.1688e-14 4.46395e-13 0)
(8.43321e-14 4.64415e-13 0)
(7.67243e-14 4.78224e-13 0)
(6.89678e-14 4.87425e-13 0)
(6.09145e-14 4.91556e-13 0)
(5.33124e-14 4.90392e-13 0)
(4.53818e-14 4.83316e-13 0)
(3.78333e-14 4.69767e-13 0)
(3.0571e-14 4.49212e-13 0)
(2.38135e-14 4.21059e-13 0)
(1.76545e-14 3.84601e-13 0)
(1.20657e-14 3.39065e-13 0)
(7.44893e-15 2.83774e-13 0)
(3.89317e-15 2.17792e-13 0)
(1.39052e-15 1.40152e-13 0)
(2.6113e-17 5.20788e-14 0)
(-5.448e-18 -5.24922e-14 0)
(5.00754e-16 -1.41444e-13 0)
(1.32898e-15 -2.19771e-13 0)
(2.58218e-15 -2.86472e-13 0)
(4.18638e-15 -3.42419e-13 0)
(6.05979e-15 -3.88441e-13 0)
(8.15612e-15 -4.25342e-13 0)
(1.04756e-14 -4.53861e-13 0)
(1.29233e-14 -4.74686e-13 0)
(1.54054e-14 -4.8844e-13 0)
(1.81046e-14 -4.95691e-13 0)
(2.07285e-14 -4.97023e-13 0)
(2.36381e-14 -4.9273e-13 0)
(2.61064e-14 -4.83398e-13 0)
(2.86465e-14 -4.69451e-13 0)
(3.11119e-14 -4.51264e-13 0)
(3.34658e-14 -4.2918e-13 0)
(3.56933e-14 -4.03548e-13 0)
(3.77746e-14 -3.74703e-13 0)
(3.96919e-14 -3.42971e-13 0)
(4.14286e-14 -3.08662e-13 0)
(4.29717e-14 -2.72093e-13 0)
(4.43132e-14 -2.3356e-13 0)
(4.54418e-14 -1.93369e-13 0)
(4.63508e-14 -1.51819e-13 0)
(4.70323e-14 -1.09212e-13 0)
(4.74809e-14 -6.58475e-14 0)
(4.76974e-14 -2.20321e-14 0)
(4.76793e-14 2.19377e-14 0)
(4.74267e-14 6.57567e-14 0)
(4.69424e-14 1.0912e-13 0)
(4.62288e-14 1.51725e-13 0)
(4.52891e-14 1.93274e-13 0)
(4.41328e-14 2.33464e-13 0)
(4.27633e-14 2.71998e-13 0)
(4.11933e-14 3.08573e-13 0)
(3.94343e-14 3.42883e-13 0)
(3.74961e-14 3.74618e-13 0)
(3.53992e-14 4.03468e-13 0)
(3.3159e-14 4.29106e-13 0)
(3.07941e-14 4.51198e-13 0)
(2.83257e-14 4.69394e-13 0)
(2.57885e-14 4.83349e-13 0)
(2.33234e-14 4.92693e-13 0)
(2.0424e-14 4.96998e-13 0)
(1.78217e-14 4.95675e-13 0)
(1.51342e-14 4.88441e-13 0)
(1.26807e-14 4.747e-13 0)
(1.02983e-14 4.53885e-13 0)
(7.97575e-15 4.25365e-13 0)
(5.85502e-15 3.88481e-13 0)
(4.14043e-15 3.42488e-13 0)
(2.59792e-15 2.8651e-13 0)
(1.21091e-15 2.19774e-13 0)
(4.38448e-16 1.41483e-13 0)
(-1.38695e-17 5.25076e-14 0)
(-1.38664e-17 -5.25081e-14 0)
(-4.12525e-16 -1.41459e-13 0)
(-1.18215e-15 -2.19805e-13 0)
(-2.36286e-15 -2.86515e-13 0)
(-3.82472e-15 -3.42462e-13 0)
(-5.58402e-15 -3.88485e-13 0)
(-7.60027e-15 -4.25383e-13 0)
(-9.78681e-15 -4.53899e-13 0)
(-1.21284e-14 -4.74724e-13 0)
(-1.45336e-14 -4.88477e-13 0)
(-1.71343e-14 -4.95724e-13 0)
(-1.96757e-14 -4.97052e-13 0)
(-2.25141e-14 -4.92757e-13 0)
(-2.49142e-14 -4.83422e-13 0)
(-2.73932e-14 -4.69472e-13 0)
(-2.98075e-14 -4.51281e-13 0)
(-3.21177e-14 -4.29193e-13 0)
(-3.43075e-14 -4.03557e-13 0)
(-3.63588e-14 -3.74709e-13 0)
(-3.82529e-14 -3.42973e-13 0)
(-3.99751e-14 -3.08663e-13 0)
(-4.15088e-14 -2.72084e-13 0)
(-4.28449e-14 -2.33548e-13 0)
(-4.3976e-14 -1.93355e-13 0)
(-4.48927e-14 -1.51803e-13 0)
(-4.55893e-14 -1.09196e-13 0)
(-4.6063e-14 -6.58324e-14 0)
(-4.63111e-14 -2.20124e-14 0)
(-4.6329e-14 2.19578e-14 0)
(-4.61187e-14 6.57762e-14 0)
(-4.56828e-14 1.09141e-13 0)
(-4.50207e-14 1.5175e-13 0)
(-4.41364e-14 1.93301e-13 0)
(-4.30372e-14 2.33496e-13 0)
(-4.17278e-14 2.72028e-13 0)
(-4.02206e-14 3.08605e-13 0)
(-3.85256e-14 3.42913e-13 0)
(-3.66523e-14 3.74651e-13 0)
(-3.46186e-14 4.03499e-13 0)
(-3.24415e-14 4.29135e-13 0)
(-3.01411e-14 4.51225e-13 0)
(-2.77332e-14 4.69422e-13 0)
(-2.52514e-14 4.83373e-13 0)
(-2.28452e-14 4.92715e-13 0)
(-1.99989e-14 4.97017e-13 0)
(-1.74385e-14 4.95695e-13 0)
(-1.48031e-14 4.88456e-13 0)
(-1.23817e-14 4.74706e-13 0)
(-1.00443e-14 4.5389e-13 0)
(-7.76966e-15 4.2539e-13 0)
(-5.64985e-15 3.88487e-13 0)
(-3.99868e-15 3.42445e-13 0)
(-2.51682e-15 2.86532e-13 0)
(-1.12229e-15 2.19829e-13 0)
(-4.32574e-16 1.41443e-13 0)
(8.32611e-18 5.25147e-14 0)
(-3.51938e-17 -5.2074e-14 0)
(-1.32947e-15 -1.40217e-13 0)
(-3.71623e-15 -2.17791e-13 0)
(-7.31634e-15 -2.83803e-13 0)
(-1.18583e-14 -3.39144e-13 0)
(-1.72635e-14 -3.84641e-13 0)
(-2.34078e-14 -4.21105e-13 0)
(-3.01141e-14 -4.49283e-13 0)
(-3.72795e-14 -4.69842e-13 0)
(-4.47686e-14 -4.83401e-13 0)
(-5.26327e-14 -4.90487e-13 0)
(-6.01717e-14 -4.91661e-13 0)
(-6.81672e-14 -4.87536e-13 0)
(-7.58625e-14 -4.7834e-13 0)
(-8.34133e-14 -4.64536e-13 0)
(-9.07172e-14 -4.46519e-13 0)
(-9.77012e-14 -4.24654e-13 0)
(-1.04312e-13 -3.99286e-13 0)
(-1.10493e-13 -3.70742e-13 0)
(-1.16192e-13 -3.39339e-13 0)
(-1.21363e-13 -3.05392e-13 0)
(-1.25973e-13 -2.69202e-13 0)
(-1.29988e-13 -2.31075e-13 0)
(-1.33374e-13 -1.91304e-13 0)
(-1.36112e-13 -1.50191e-13 0)
(-1.38186e-13 -1.0803e-13 0)
(-1.39579e-13 -6.51228e-14 0)
(-1.40288e-13 -2.17622e-14 0)
(-1.40308e-13 2.17481e-14 0)
(-1.39637e-13 6.51097e-14 0)
(-1.38277e-13 1.08018e-13 0)
(-1.36239e-13 1.50179e-13 0)
(-1.33534e-13 1.91287e-13 0)
(-1.30181e-13 2.31055e-13 0)
(-1.26199e-13 2.6918e-13 0)
(-1.21617e-13 3.05365e-13 0)
(-1.16467e-13 3.39309e-13 0)
(-1.1079e-13 3.70709e-13 0)
(-1.04629e-13 3.99248e-13 0)
(-9.80314e-14 4.24616e-13 0)
(-9.10557e-14 4.46476e-13 0)
(-8.37593e-14 4.64493e-13 0)
(-7.6207e-14 4.78295e-13 0)
(-6.85059e-14 4.8749e-13 0)
(-6.04986e-14 4.91615e-13 0)
(-5.29406e-14 4.90443e-13 0)
(-4.50688e-14 4.83354e-13 0)
(-3.75482e-14 4.69807e-13 0)
(-3.03017e-14 4.49242e-13 0)
(-2.36095e-14 4.2106e-13 0)
(-1.75202e-14 3.84613e-13 0)
(-1.19105e-14 3.39134e-13 0)
(-7.27096e-15 2.83753e-13 0)
(-3.86745e-15 2.17755e-13 0)
(-1.44065e-15 1.402e-13 0)
(-2.05217e-17 5.20744e-14 0)
(-2.31994e-17 -5.12013e-14 0)
(-2.26453e-15 -1.37683e-13 0)
(-6.24725e-15 -2.1372e-13 0)
(-1.2321e-14 -2.78337e-13 0)
(-1.9959e-14 -3.32451e-13 0)
(-2.90179e-14 -3.76899e-13 0)
(-3.93056e-14 -4.12496e-13 0)
(-5.05347e-14 -4.39981e-13 0)
(-6.25212e-14 -4.60017e-13 0)
(-7.50446e-14 -4.73226e-13 0)
(-8.79353e-14 -4.80175e-13 0)
(-1.00932e-13 -4.81322e-13 0)
(-1.13988e-13 -4.77155e-13 0)
(-1.26854e-13 -4.6813e-13 0)
(-1.3945e-13 -4.5461e-13 0)
(-1.51625e-13 -4.36973e-13 0)
(-1.63269e-13 -4.15571e-13 0)
(-1.74284e-13 -3.90746e-13 0)
(-1.84576e-13 -3.62809e-13 0)
(-1.94065e-13 -3.32083e-13 0)
(-2.02679e-13 -2.98859e-13 0)
(-2.10351e-13 -2.63452e-13 0)
(-2.17024e-13 -2.26136e-13 0)
(-2.22656e-13 -1.87223e-13 0)
(-2.27208e-13 -1.46984e-13 0)
(-2.30651e-13 -1.05725e-13 0)
(-2.32963e-13 -6.37189e-14 0)
(-2.34129e-13 -2.12828e-14 0)
(-2.34145e-13 2.13129e-14 0)
(-2.33013e-13 6.37478e-14 0)
(-2.30739e-13 1.05751e-13 0)
(-2.27335e-13 1.47005e-13 0)
(-2.22816e-13 1.87244e-13 0)
(-2.17214e-13 2.2615e-13 0)
(-2.10568e-13 2.63464e-13 0)
(-2.02923e-13 2.98863e-13 0)
(-1.94335e-13 3.32084e-13 0)
(-1.84869e-13 3.62798e-13 0)
(-1.74593e-13 3.90732e-13 0)
(-1.63592e-13 4.15547e-13 0)
(-1.51959e-13 4.36946e-13 0)
(-1.39789e-13 4.5457e-13 0)
(-1.27194e-13 4.68089e-13 0)
(-1.14322e-13 4.77104e-13 0)
(-1.01261e-13 4.81268e-13 0)
(-8.82493e-14 4.80113e-13 0)
(-7.53171e-14 4.73165e-13 0)
(-6.27809e-14 4.59942e-13 0)
(-5.08175e-14 4.39911e-13 0)
(-3.94785e-14 4.1244e-13 0)
(-2.90654e-14 3.76818e-13 0)
(-2.01729e-14 3.32359e-13 0)
(-1.25183e-14 2.78293e-13 0)
(-6.17141e-15 2.13679e-13 0)
(-2.29262e-15 1.3762e-13 0)
(3.54389e-18 5.11996e-14 0)
(-5.26678e-17 -4.98751e-14 0)
(-3.21032e-15 -1.3386e-13 0)
(-8.85256e-15 -2.07562e-13 0)
(-1.73867e-14 -2.70083e-13 0)
(-2.8155e-14 -3.22354e-13 0)
(-4.09017e-14 -3.65235e-13 0)
(-5.53456e-14 -3.99541e-13 0)
(-7.11035e-14 -4.25999e-13 0)
(-8.79043e-14 -4.4527e-13 0)
(-1.05453e-13 -4.57946e-13 0)
(-1.23467e-13 -4.64593e-13 0)
(-1.41693e-13 -4.6565e-13 0)
(-1.59919e-13 -4.61585e-13 0)
(-1.77918e-13 -4.52825e-13 0)
(-1.95514e-13 -4.39738e-13 0)
(-2.12525e-13 -4.22665e-13 0)
(-2.28794e-13 -4.01971e-13 0)
(-2.4418e-13 -3.77948e-13 0)
(-2.58557e-13 -3.50938e-13 0)
(-2.71809e-13 -3.21211e-13 0)
(-2.83838e-13 -2.89091e-13 0)
(-2.9455e-13 -2.54832e-13 0)
(-3.03871e-13 -2.18753e-13 0)
(-3.11734e-13 -1.81102e-13 0)
(-3.18085e-13 -1.42191e-13 0)
(-3.22881e-13 -1.02265e-13 0)
(-3.26099e-13 -6.16415e-14 0)
(-3.27722e-13 -2.05669e-14 0)
(-3.27741e-13 2.06322e-14 0)
(-3.26153e-13 6.17058e-14 0)
(-3.22966e-13 1.02328e-13 0)
(-3.18199e-13 1.42253e-13 0)
(-3.11879e-13 1.81162e-13 0)
(-3.04047e-13 2.18809e-13 0)
(-2.94756e-13 2.54879e-13 0)
(-2.8407e-13 2.89128e-13 0)
(-2.72065e-13 3.21239e-13 0)
(-2.58832e-13 3.50955e-13 0)
(-2.44472e-13 3.77953e-13 0)
(-2.291e-13 4.01962e-13 0)
(-2.12842e-13 4.22645e-13 0)
(-1.95837e-13 4.39706e-13 0)
(-1.78239e-13 4.52778e-13 0)
(-1.6024e-13 4.61528e-13 0)
(-1.42005e-13 4.65583e-13 0)
(-1.23757e-13 4.64516e-13 0)
(-1.05749e-13 4.57856e-13 0)
(-8.81696e-14 4.45181e-13 0)
(-7.12653e-14 4.25907e-13 0)
(-5.55591e-14 3.99409e-13 0)
(-4.12021e-14 3.65138e-13 0)
(-2.81848e-14 3.22284e-13 0)
(-1.73133e-14 2.69964e-13 0)
(-9.05239e-15 2.07448e-13 0)
(-3.33729e-15 1.33813e-13 0)
(-5.26135e-17 4.98571e-14 0)
(-3.93664e-17 -4.80887e-14 0)
(-4.18607e-15 -1.28717e-13 0)
(-1.14786e-14 -1.99289e-13 0)
(-2.25618e-14 -2.59007e-13 0)
(-3.64967e-14 -3.0883e-13 0)
(-5.29628e-14 -3.49629e-13 0)
(-7.15879e-14 -3.82221e-13 0)
(-9.18858e-14 -4.07335e-13 0)
(-1.13494e-13 -4.25601e-13 0)
(-1.3605e-13 -4.37598e-13 0)
(-1.5918e-13 -4.43846e-13 0)
(-1.8258e-13 -4.44795e-13 0)
(-2.05955e-13 -4.40872e-13 0)