/*--------------------------------*- C++ -*----------------------------------*\
| =========                 |                                                 |
| \\      /  F ield         | OpenFOAM: The Open Source CFD Toolbox           |
|  \\    /   O peration     | Version:  5.0                                   |
|   \\  /    A nd           | Web:      www.OpenFOAM.org                      |
|    \\/     M anipulation  |                                                 |
\*---------------------------------------------------------------------------*/
FoamFile
{
    version     2.0;
    format      ascii;
    class       volScalarField;
    location    "521";
    object      p;
}
// * * * * * * * * * * * * * * * * * * * * * * * * * * * * * * * * * * * * * //

dimensions      [0 2 -2 0 0 0 0];

internalField   nonuniform List<scalar> 
1568
(
9.56706e-20
9.18417e-19
1.55706e-18
1.9558e-18
2.29403e-18
2.58863e-18
2.84086e-18
3.06687e-18
3.27438e-18
3.46787e-18
3.65186e-18
3.83037e-18
4.00603e-18
4.18054e-18
4.35576e-18
4.53305e-18
4.7131e-18
4.89657e-18
5.08379e-18
5.27489e-18
5.46979e-18
5.66878e-18
5.86353e-18
6.00861e-18
6.12023e-18
6.26604e-18
6.5025e-18
6.84373e-18
7.23114e-18
7.57324e-18
7.81076e-18
7.95754e-18
8.06907e-18
8.2131e-18
8.40741e-18
8.60631e-18
8.80092e-18
8.9919e-18
9.17887e-18
9.36208e-18
9.54187e-18
9.71889e-18
9.89379e-18
1.00681e-17
1.02433e-17
1.04215e-17
1.06054e-17
1.07985e-17
1.10051e-17
1.12308e-17
1.14837e-17
1.1775e-17
1.21108e-17
1.25102e-17
1.31381e-17
1.38608e-17
5.55765e-19
1.03806e-18
1.78068e-18
2.11634e-18
2.42509e-18
2.75312e-18
3.00413e-18
3.22839e-18
3.44293e-18
3.63965e-18
3.82222e-18
3.99898e-18
4.17343e-18
4.34395e-18
4.514e-18
4.6851e-18
4.85766e-18
5.03246e-18
5.21031e-18
5.39155e-18
5.57651e-18
5.76547e-18
5.9638e-18
6.18713e-18
6.4094e-18
6.61142e-18
6.81972e-18
6.98339e-18
7.09437e-18
7.25849e-18
7.46644e-18
7.6675e-18
7.88824e-18
8.11243e-18
8.31084e-18
8.50029e-18
8.68409e-18
8.86589e-18
9.04313e-18
9.21759e-18
9.39018e-18
9.56162e-18
9.73094e-18
9.90145e-18
1.0074e-17
1.02512e-17
1.04358e-17
1.06306e-17
1.08392e-17
1.10698e-17
1.13282e-17
1.16256e-17
1.19537e-17
1.23122e-17
1.30267e-17
1.35052e-17
1.01317e-18
1.44803e-18
2.00001e-18
2.39787e-18
2.72811e-18
3.00316e-18
3.25758e-18
3.50007e-18
3.70529e-18
3.89173e-18
4.0817e-18
4.25672e-18
4.41943e-18
4.58381e-18
4.74657e-18
4.9052e-18
5.06596e-18
5.22784e-18
5.39128e-18
5.55546e-18
5.72262e-18
5.89079e-18
6.06063e-18
6.23255e-18
6.38765e-18
6.53961e-18
6.72504e-18
6.9345e-18
7.14286e-18
7.35098e-18
7.53652e-18
7.69009e-18
7.84693e-18
8.01832e-18
8.18663e-18
8.35377e-18
8.5225e-18
8.6851e-18
8.8486e-18
9.0107e-18
9.16968e-18
9.32723e-18
9.49019e-18
9.65257e-18
9.81991e-18
9.99304e-18
1.01743e-17
1.03674e-17
1.05788e-17
1.08087e-17
1.10595e-17
1.13502e-17
1.16922e-17
1.20099e-17
1.2647e-17
1.30633e-17
1.44871e-18
1.8116e-18
2.39843e-18
2.66547e-18
2.97175e-18
3.25313e-18
3.49577e-18
3.71916e-18
3.92196e-18
4.11015e-18
4.28386e-18
4.448e-18
4.60986e-18
4.76716e-18
4.91772e-18
5.06986e-18
5.22114e-18
5.37133e-18
5.52219e-18
5.67634e-18
5.83054e-18
5.98601e-18
6.14158e-18
6.29806e-18
6.44952e-18
6.60563e-18
6.77181e-18
6.94898e-18
7.12822e-18
7.30615e-18
7.47308e-18
7.62707e-18
7.77723e-18
7.93294e-18
8.09017e-18
8.24507e-18
8.39929e-18
8.55281e-18
8.70346e-18
8.85393e-18
9.00557e-18
9.15811e-18
9.30964e-18
9.46453e-18
9.62449e-18
9.79039e-18
9.96445e-18
1.01534e-17
1.03545e-17
1.05697e-17
1.0823e-17
1.11084e-17
1.13948e-17
1.16876e-17
1.22698e-17
1.26265e-17
1.91082e-18
2.21261e-18
2.72974e-18
2.98362e-18
3.26791e-18
3.53192e-18
3.76023e-18
3.9663e-18
4.15596e-18
4.33618e-18
4.50143e-18
4.65883e-18
4.81035e-18
4.95497e-18
5.09738e-18
5.23887e-18
5.37799e-18
5.51764e-18
5.65756e-18
5.79774e-18
5.93875e-18
6.08128e-18
6.22496e-18
6.37029e-18
6.5153e-18
6.66277e-18
6.81258e-18
6.96343e-18
7.11358e-18
7.26451e-18
7.41444e-18
7.56255e-18
7.70807e-18
7.85299e-18
7.99676e-18
8.139e-18
8.27895e-18
8.41956e-18
8.55904e-18
8.69765e-18
8.83625e-18
8.97619e-18
9.11801e-18
9.26426e-18
9.41411e-18
9.5714e-18
9.73807e-18
9.91291e-18
1.01032e-17
1.03179e-17
1.05417e-17
1.07868e-17
1.10852e-17
1.13677e-17
1.18416e-17
1.21616e-17
2.40173e-18
2.68189e-18
3.10631e-18
3.36055e-18
3.60703e-18
3.83855e-18
4.05312e-18
4.24581e-18
4.42044e-18
4.5861e-18
4.74084e-18
4.88653e-18
5.0254e-18
5.16034e-18
5.29252e-18
5.42057e-18
5.54745e-18
5.67436e-18
5.80115e-18
5.92716e-18
6.05446e-18
6.18265e-18
6.3111e-18
6.44009e-18
6.57004e-18
6.70047e-18
6.83438e-18
6.97074e-18
7.10725e-18
7.24313e-18
7.37656e-18
7.50716e-18
7.63716e-18
7.76615e-18
7.8937e-18
8.02158e-18
8.14893e-18
8.27497e-18
8.40134e-18
8.52807e-18
8.65495e-18
8.78328e-18
8.91472e-18
9.04858e-18
9.18779e-18
9.33319e-18
9.48552e-18
9.6518e-18
9.83081e-18
1.00149e-17
1.02287e-17
1.04778e-17
1.0715e-17
1.09415e-17
1.14002e-17
1.16734e-17
2.9082e-18
3.14922e-18
3.52402e-18
3.7386e-18
3.96041e-18
4.17333e-18
4.36035e-18
4.5331e-18
4.6966e-18
4.84615e-18
4.98525e-18
5.11757e-18
5.24443e-18
5.3666e-18
5.48462e-18
5.60071e-18
5.71575e-18
5.82898e-18
5.9417e-18
6.05517e-18
6.16862e-18
6.28182e-18
6.39587e-18
6.51064e-18
6.62592e-18
6.74209e-18
6.86002e-18
6.979e-18
7.09851e-18
7.21805e-18
7.33583e-18
7.45144e-18
7.56642e-18
7.68106e-18
7.79495e-18
7.90828e-18
8.02169e-18
8.13422e-18
8.24669e-18
8.35986e-18
8.47424e-18
8.59005e-18
8.70812e-18
8.8294e-18
8.95562e-18
9.08828e-18
9.22813e-18
9.37631e-18
9.53632e-18
9.71387e-18
9.90282e-18
1.01003e-17
1.03343e-17
1.0561e-17
1.09233e-17
1.11636e-17
3.43085e-18
3.63276e-18
3.95858e-18
4.14141e-18
4.33597e-18
4.52092e-18
4.68459e-18
4.83841e-18
4.98262e-18
5.11342e-18
5.23808e-18
5.35693e-18
5.46929e-18
5.57692e-18
5.68163e-18
5.78434e-18
5.88511e-18
5.98468e-18
6.08383e-18
6.18282e-18
6.2816e-18
6.38079e-18
6.48051e-18
6.58066e-18
6.68102e-18
6.78246e-18
6.88461e-18
6.98735e-18
7.09029e-18
7.19279e-18
7.29515e-18
7.39682e-18
7.49698e-18
7.59685e-18
7.69671e-18
7.79553e-18
7.89381e-18
7.99266e-18
8.09152e-18
8.1908e-18
8.29108e-18
8.39292e-18
8.49722e-18
8.60518e-18
8.71708e-18
8.8343e-18
8.95799e-18
9.09127e-18
9.23415e-18
9.38356e-18
9.55055e-18
9.74153e-18
9.92944e-18
1.01002e-17
1.04383e-17
1.06405e-17
3.96652e-18
4.13669e-18
4.41089e-18
4.56515e-18
4.7281e-18
4.88332e-18
5.027e-18
5.15933e-18
5.28059e-18
5.39501e-18
5.50338e-18
5.60431e-18
5.70093e-18
5.79453e-18
5.88494e-18
5.9728e-18
6.0589e-18
6.14444e-18
6.22928e-18
6.31324e-18
6.39739e-18
6.48217e-18
6.56652e-18
6.65126e-18
6.73667e-18
6.82247e-18
6.90869e-18
6.99553e-18
7.08248e-18
7.16901e-18
7.25523e-18
7.34086e-18
7.42611e-18
7.51074e-18
7.59495e-18
7.67909e-18
7.76307e-18
7.84707e-18
7.93149e-18
8.01653e-18
8.10252e-18
8.19022e-18
8.28032e-18
8.37312e-18
8.46908e-18
8.57065e-18
8.67823e-18
8.79142e-18
8.91307e-18
9.04635e-18
9.18912e-18
9.33753e-18
9.50755e-18
9.67049e-18
9.93199e-18
1.01033e-17
4.51278e-18
4.65095e-18
4.87113e-18
4.99742e-18
5.13265e-18
5.26091e-18
5.37917e-18
5.48722e-18
5.58757e-18
5.68374e-18
5.7742e-18
5.85799e-18
5.93776e-18
6.01545e-18
6.09009e-18
6.16309e-18
6.23457e-18
6.30495e-18
6.37462e-18
6.44444e-18
6.51362e-18
6.58267e-18
6.65214e-18
6.72198e-18
6.79186e-18
6.86206e-18
6.93263e-18
7.00344e-18
7.07424e-18
7.14528e-18
7.21576e-18
7.28577e-18
7.35559e-18
7.42516e-18
7.4943e-18
7.56329e-18
7.63251e-18
7.70165e-18
7.77101e-18
7.84109e-18
7.91222e-18
7.98475e-18
8.0591e-18
8.13609e-18
8.21564e-18
8.2997e-18
8.38862e-18
8.48401e-18
8.5862e-18
8.69185e-18
8.80963e-18
8.9405e-18
9.07426e-18
9.19237e-18
9.42021e-18
9.55721e-18
5.06662e-18
5.17391e-18
5.34362e-18
5.44309e-18
5.54798e-18
5.64749e-18
5.73893e-18
5.82378e-18
5.90485e-18
5.97955e-18
6.04883e-18
6.1151e-18
6.17954e-18
6.24039e-18
6.29868e-18
6.35601e-18
6.41219e-18
6.46726e-18
6.52175e-18
6.57594e-18
6.63022e-18
6.6841e-18
6.73831e-18
6.7924e-18
6.84669e-18
6.9013e-18
6.95646e-18
7.01155e-18
7.06664e-18
7.12158e-18
7.17617e-18
7.23076e-18
7.28511e-18
7.33916e-18
7.39313e-18
7.44691e-18
7.50067e-18
7.55461e-18
7.60888e-18
7.6637e-18
7.71941e-18
7.7761e-18
7.83403e-18
7.89492e-18
7.95859e-18
8.02376e-18
8.0939e-18
8.16812e-18
8.24696e-18
8.33229e-18
8.42645e-18
8.52163e-18
8.62604e-18
8.72959e-18
8.89528e-18
9.00221e-18
5.62699e-18
5.70322e-18
5.82496e-18
5.89522e-18
5.97008e-18
6.0412e-18
6.10733e-18
6.1687e-18
6.22638e-18
6.27664e-18
6.32935e-18
6.37499e-18
6.42017e-18
6.468e-18
6.51031e-18
6.55117e-18
6.59141e-18
6.63101e-18
6.67033e-18
6.70888e-18
6.74764e-18
6.78628e-18
6.82495e-18
6.86369e-18
6.90284e-18
6.94168e-18
6.98042e-18
7.01907e-18
7.05811e-18
7.09733e-18
7.13657e-18
7.17542e-18
7.21396e-18
7.25239e-18
7.29077e-18
7.32941e-18
7.36765e-18
7.40612e-18
7.44502e-18
7.48421e-18
7.52413e-18
7.56492e-18
7.60663e-18
7.65403e-18
7.6988e-18
7.74408e-18
7.79622e-18
7.84579e-18
7.90453e-18
7.96482e-18
8.02785e-18
8.1003e-18
8.17931e-18
8.24329e-18
8.36615e-18
8.44194e-18
6.19118e-18
6.23736e-18
6.31069e-18
6.35236e-18
6.39771e-18
6.44043e-18
6.4806e-18
6.51804e-18
6.5511e-18
6.57423e-18
6.63278e-18
6.66424e-18
6.66248e-18
6.69942e-18
6.72388e-18
6.74769e-18
6.77221e-18
6.79586e-18
6.81922e-18
6.8425e-18
6.86543e-18
6.88864e-18
6.91155e-18
6.93442e-18
6.95733e-18
6.98053e-18
7.00392e-18
7.02773e-18
7.05113e-18
7.07395e-18
7.09688e-18
7.11993e-18
7.14292e-18
7.16598e-18
7.18876e-18
7.21133e-18
7.23431e-18
7.25733e-18
7.28029e-18
7.30357e-18
7.32765e-18
7.35118e-18
7.37531e-18
7.41164e-18
7.40953e-18
7.44066e-18
7.49834e-18
7.52191e-18
7.55378e-18
7.5892e-18
7.63392e-18
7.67446e-18
7.71398e-18
7.75902e-18
7.83216e-18
7.8772e-18
6.75842e-18
6.77423e-18
6.79892e-18
6.81339e-18
6.82901e-18
6.84299e-18
6.85673e-18
6.87038e-18
6.88577e-18
6.89234e-18
6.91037e-18
6.91481e-18
6.91557e-18
6.94019e-18
6.94053e-18
6.94558e-18
6.95374e-18
6.96125e-18
6.96853e-18
6.97618e-18
6.98371e-18
6.99105e-18
6.99842e-18
7.00601e-18
7.01332e-18
7.0208e-18
7.02799e-18
7.03512e-18
7.04246e-18
7.04994e-18
7.05728e-18
7.06464e-18
7.0718e-18
7.07894e-18
7.08634e-18
7.09329e-18
7.10068e-18
7.10782e-18
7.11486e-18
7.1223e-18
7.12993e-18
7.13428e-18
7.13462e-18
7.15872e-18
7.15894e-18
7.16327e-18
7.18043e-18
7.18613e-18
7.20239e-18
7.21681e-18
7.2269e-18
7.23738e-18
7.26268e-18
7.27275e-18
7.29423e-18
7.31005e-18
7.32627e-18
7.31236e-18
7.28926e-18
7.27515e-18
7.261e-18
7.24597e-18
7.23351e-18
7.21948e-18
7.20441e-18
7.19808e-18
7.17957e-18
7.17498e-18
7.17408e-18
7.14921e-18
7.14838e-18
7.14313e-18
7.13452e-18
7.1263e-18
7.11832e-18
7.11022e-18
7.10193e-18
7.09353e-18
7.08537e-18
7.0772e-18
7.06884e-18
7.06035e-18
7.05191e-18
7.04312e-18
7.03443e-18
7.02615e-18
7.01772e-18
7.0091e-18
7.00061e-18
6.99199e-18
6.98352e-18
6.97527e-18
6.96666e-18
6.95809e-18
6.94982e-18
6.94126e-18
6.93245e-18
6.92671e-18
6.92554e-18
6.90039e-18
6.89889e-18
6.8937e-18
6.8754e-18
6.86927e-18
6.8522e-18
6.83553e-18
6.82824e-18
6.81354e-18
6.79195e-18
6.77555e-18
6.75815e-18
6.74215e-18
7.89381e-18
7.84988e-18
7.7781e-18
7.73572e-18
7.69244e-18
7.6486e-18
7.61025e-18
7.57232e-18
7.53869e-18
7.51596e-18
7.45723e-18
7.42586e-18
7.42762e-18
7.39019e-18
7.36548e-18
7.34118e-18
7.3161e-18
7.29206e-18
7.26811e-18
7.24397e-18
7.22005e-18
7.19656e-18
7.17237e-18
7.14804e-18
7.12381e-18
7.0996e-18
7.0755e-18
7.05167e-18
7.02724e-18
7.00259e-18
6.9778e-18
6.95354e-18
6.92937e-18
6.9054e-18
6.88092e-18
6.85698e-18
6.83264e-18
6.80868e-18
6.78432e-18
6.75972e-18
6.73432e-18
6.70993e-18
6.68439e-18
6.64666e-18
6.64814e-18
6.6168e-18
6.55705e-18
6.53288e-18
6.50076e-18
6.46469e-18
6.42076e-18
6.3725e-18
6.34189e-18
6.29568e-18
6.21894e-18
6.17466e-18
8.45864e-18
8.38416e-18
8.26418e-18
8.19419e-18
8.12058e-18
8.04768e-18
7.9836e-18
7.92176e-18
7.86409e-18
7.81407e-18
7.76073e-18
7.71512e-18
7.66993e-18
7.62163e-18
7.57934e-18
7.53761e-18
7.49701e-18
7.45671e-18
7.41712e-18
7.37742e-18
7.33824e-18
7.29848e-18
7.25921e-18
7.21962e-18
7.18024e-18
7.13993e-18
7.09964e-18
7.05867e-18
7.01859e-18
6.97816e-18
6.93845e-18
6.89819e-18
6.85829e-18
6.81817e-18
6.7788e-18
6.73888e-18
6.69948e-18
6.6594e-18
6.6195e-18
6.57896e-18
6.53798e-18
6.4959e-18
6.45337e-18
6.40468e-18
6.35894e-18
6.31259e-18
6.2594e-18
6.21008e-18
6.14976e-18
6.08526e-18
6.02753e-18
5.95563e-18
5.87067e-18
5.79989e-18
5.68693e-18
5.61006e-18
9.02004e-18
8.91511e-18
8.74524e-18
8.6465e-18
8.54379e-18
8.44213e-18
8.35172e-18
8.26621e-18
8.18587e-18
8.11147e-18
8.0408e-18
7.97522e-18
7.91079e-18
7.84925e-18
7.79047e-18
7.73302e-18
7.67638e-18
7.62062e-18
7.56533e-18
7.51051e-18
7.45564e-18
7.40057e-18
7.3456e-18
7.29023e-18
7.23465e-18
7.17892e-18
7.12337e-18
7.06722e-18
7.01116e-18
6.95474e-18
6.89884e-18
6.84277e-18
6.78739e-18
6.73183e-18
6.67693e-18
6.62142e-18
6.56656e-18
6.51106e-18
6.45581e-18
6.39955e-18
6.34285e-18
6.2845e-18
6.22585e-18
6.16352e-18
6.09909e-18
6.03357e-18
5.96176e-18
5.88518e-18
5.80867e-18
5.72393e-18
5.62551e-18
5.52117e-18
5.43397e-18
5.33054e-18
5.15381e-18
5.04889e-18
9.57521e-18
9.43835e-18
9.21977e-18
9.09173e-18
8.95943e-18
8.82974e-18
8.71346e-18
8.60423e-18
8.50256e-18
8.40814e-18
8.31727e-18
8.23297e-18
8.15268e-18
8.07537e-18
7.99962e-18
7.92697e-18
7.85418e-18
7.78406e-18
7.71262e-18
7.64343e-18
7.5721e-18
7.50326e-18
7.43166e-18
7.36226e-18
7.2899e-18
7.21992e-18
7.14649e-18
7.07595e-18
7.00209e-18
6.93165e-18
6.85802e-18
6.7882e-18
6.71552e-18
6.64636e-18
6.57397e-18
6.50536e-18
6.43339e-18
6.36443e-18
6.29206e-18
6.22224e-18
6.14842e-18
6.07615e-18
5.99923e-18
5.92239e-18
5.84094e-18
5.75602e-18
5.6651e-18
5.57371e-18
5.46621e-18
5.35295e-18
5.2494e-18
5.1194e-18
4.9702e-18
4.84236e-18
4.63398e-18
4.49434e-18
1.01231e-17
9.95423e-18
9.68314e-18
9.52657e-18
9.36442e-18
9.20604e-18
9.066e-18
8.9335e-18
8.81081e-18
8.69654e-18
8.58885e-18
8.48667e-18
8.39034e-18
8.29612e-18
8.2059e-18
8.11673e-18
8.03051e-18
7.94389e-18
7.85934e-18
7.77328e-18
7.68914e-18
7.60309e-18
7.51824e-18
7.43154e-18
7.346e-18
7.25823e-18
7.17142e-18
7.08269e-18
6.99528e-18
6.90647e-18
6.81959e-18
6.73184e-18
6.64585e-18
6.55898e-18
6.47389e-18
6.388e-18
6.30308e-18
6.2174e-18
6.13227e-18
6.04568e-18
5.95873e-18
5.86992e-18
5.77926e-18
5.68471e-18
5.58727e-18
5.4865e-18
5.37794e-18
5.25945e-18
5.13992e-18
5.01631e-18
4.86054e-18
4.69445e-18
4.55762e-18
4.39998e-18
4.114e-18
3.94656e-18
1.06607e-17
1.04582e-17
1.01338e-17
9.94975e-18
9.75856e-18
9.57042e-18
9.40674e-18
9.25282e-18
9.1097e-18
8.97692e-18
8.85289e-18
8.73396e-18
8.6222e-18
8.51244e-18
8.40897e-18
8.30447e-18
8.20503e-18
8.10219e-18
8.00507e-18
7.90265e-18
7.80598e-18
7.70229e-18
7.60546e-18
7.50051e-18
7.40287e-18
7.29612e-18
7.19739e-18
7.08859e-18
6.98938e-18
6.8803e-18
6.78223e-18
6.67453e-18
6.57813e-18
6.4718e-18
6.37658e-18
6.27027e-18
6.17574e-18
6.0707e-18
5.97558e-18
5.86971e-18
5.77304e-18
5.66473e-18
5.5635e-18
5.45085e-18
5.34256e-18
5.21972e-18
5.09638e-18
4.96485e-18
4.82427e-18
4.65469e-18
4.50429e-18
4.33193e-18
4.11273e-18
3.92013e-18
3.61786e-18
3.41052e-18
1.11859e-17
1.09473e-17
1.05714e-17
1.03523e-17
1.01347e-17
9.92213e-18
9.73267e-18
9.55964e-18
9.3978e-18
9.24918e-18
9.10724e-18
8.97595e-18
8.8479e-18
8.72734e-18
8.606e-18
8.49167e-18
8.37417e-18
8.26309e-18
8.1457e-18
8.03554e-18
7.91726e-18
7.807e-18
7.68741e-18
7.57587e-18
7.45481e-18
7.34206e-18
7.21784e-18
7.10221e-18
6.97592e-18
6.86062e-18
6.73583e-18
6.62346e-18
6.50148e-18
6.39048e-18
6.26962e-18
6.16051e-18
6.04133e-18
5.93123e-18
5.81263e-18
5.70283e-18
5.58339e-18
5.47042e-18
5.34758e-18
5.22824e-18
5.09716e-18
4.96675e-18
4.82596e-18
4.67579e-18
4.50932e-18
4.34775e-18
4.15603e-18
3.91726e-18
3.72775e-18
3.51859e-18
3.12229e-18
2.88525e-18
1.16957e-17
1.14195e-17
1.09847e-17
1.07371e-17
1.04897e-17
1.02517e-17
1.00414e-17
9.84952e-18
9.67117e-18
9.50708e-18
9.35191e-18
9.20699e-18
9.06548e-18
8.93215e-18
8.79853e-18
8.67179e-18
8.54054e-18
8.41668e-18
8.28558e-18
8.16229e-18
8.02938e-18
7.90579e-18
7.77022e-18
7.64617e-18
7.50869e-18
7.38361e-18
7.24109e-18
7.11169e-18
6.96598e-18
6.83702e-18
6.69279e-18
6.56925e-18
6.42934e-18
6.30777e-18
6.16889e-18
6.04952e-18
5.91096e-18
5.79307e-18
5.65728e-18
5.5384e-18
5.40097e-18
5.28062e-18
5.14062e-18
5.01255e-18
4.86575e-18
4.72706e-18
4.56447e-18
4.40527e-18
4.22542e-18
4.03202e-18
3.81451e-18
3.59865e-18
3.33771e-18
3.07135e-18
2.65555e-18
2.37742e-18
1.21869e-17
1.18727e-17
1.13747e-17
1.11046e-17
1.0824e-17
1.05619e-17
1.03366e-17
1.01255e-17
9.93479e-18
9.75652e-18
9.59218e-18
9.43188e-18
9.28409e-18
9.1343e-18
8.99548e-18
8.84944e-18
8.71487e-18
8.56837e-18
8.43536e-18
8.28592e-18
8.15273e-18
7.99946e-18
7.86527e-18
7.70836e-18
7.5731e-18
7.41278e-18
7.27372e-18
7.10831e-18
6.9697e-18
6.80335e-18
6.66684e-18
6.50506e-18
6.37306e-18
6.21286e-18
6.08212e-18
5.92292e-18
5.79509e-18
5.64083e-18
5.51121e-18
5.35798e-18
5.22955e-18
5.07574e-18
4.94317e-18
4.78674e-18
4.64483e-18
4.47815e-18
4.31852e-18
4.13551e-18
3.94952e-18
3.73485e-18
3.51427e-18
3.24372e-18
2.96239e-18
2.71243e-18
2.20129e-18
1.88686e-18
1.26517e-17
1.22907e-17
1.17212e-17
1.1428e-17
1.11244e-17
1.0842e-17
1.06004e-17
1.03781e-17
1.01757e-17
9.98883e-18
9.8131e-18
9.64601e-18
9.48634e-18
9.32934e-18
9.17651e-18
9.02362e-18
8.87355e-18
8.72006e-18
8.56911e-18
8.41311e-18
8.25977e-18
8.1007e-18
7.94598e-18
7.78495e-18
7.63479e-18
7.4742e-18
7.31043e-18
7.12762e-18
6.95063e-18
6.76758e-18
6.60361e-18
6.44001e-18
6.28979e-18
6.12703e-18
5.97516e-18
5.81404e-18
5.6643e-18
5.50287e-18
5.35671e-18
5.20117e-18
5.05583e-18
4.89787e-18
4.74977e-18
4.58843e-18
4.43225e-18
4.26047e-18
4.09048e-18
3.89904e-18
3.69829e-18
3.4719e-18
3.23696e-18
2.95165e-18
2.64976e-18
2.34844e-18
1.78455e-18
1.42391e-18
1.30908e-17
1.26785e-17
1.20345e-17
1.17051e-17
1.13851e-17
1.10848e-17
1.08283e-17
1.06008e-17
1.03885e-17
1.01959e-17
1.00116e-17
9.84069e-18
9.66945e-18
9.5098e-18
9.34349e-18
9.18815e-18
9.02052e-18
8.8656e-18
8.6934e-18
8.53703e-18
8.35852e-18
8.20037e-18
8.01802e-18
7.85771e-18
7.68914e-18
7.54906e-18
7.34637e-18
7.15074e-18
6.92589e-18
6.73155e-18
6.52712e-18
6.39242e-18
6.22086e-18
6.065e-18
5.87548e-18
5.72393e-18
5.53686e-18
5.3888e-18
5.20906e-18
5.0595e-18
4.88115e-18
4.73632e-18
4.56002e-18
4.40864e-18
4.22893e-18
4.06663e-18
3.87279e-18
3.68683e-18
3.4708e-18
3.24856e-18
2.98408e-18
2.68705e-18
2.37272e-18
2.03812e-18
1.39934e-18
9.863e-19
1.35329e-17
1.30507e-17
1.2341e-17
1.19776e-17
1.16502e-17
1.13505e-17
1.10935e-17
1.08634e-17
1.06532e-17
1.04579e-17
1.02732e-17
1.00951e-17
9.92189e-18
9.75032e-18
9.57988e-18
9.40796e-18
9.23495e-18
9.05888e-18
8.88047e-18
8.69774e-18
8.51218e-18
8.32162e-18
8.1222e-18
7.89642e-18
7.67293e-18
7.46975e-18
7.26057e-18
7.0955e-18
6.98275e-18
6.81738e-18
6.60804e-18
6.40363e-18
6.1793e-18
5.95387e-18
5.75476e-18
5.56408e-18
5.37851e-18
5.19571e-18
5.01639e-18
4.84138e-18
4.66872e-18
4.49639e-18
4.32523e-18
4.15406e-18
3.98012e-18
3.80219e-18
3.61724e-18
3.42217e-18
3.21079e-18
2.98124e-18
2.72521e-18
2.42545e-18
2.09631e-18
1.73489e-18
1.02704e-18
5.45092e-19
1.38882e-17
1.31636e-17
1.25355e-17
1.21355e-17
1.17989e-17
1.15072e-17
1.12542e-17
1.10278e-17
1.08207e-17
1.06271e-17
1.04426e-17
1.02637e-17
1.0088e-17
9.91277e-18
9.73705e-18
9.55901e-18
9.37839e-18
9.19387e-18
9.00593e-18
8.81359e-18
8.61785e-18
8.41736e-18
8.22205e-18
8.07646e-18
7.96384e-18
7.81534e-18
7.57678e-18
7.23285e-18
6.84402e-18
6.50051e-18
6.26267e-18
6.11468e-18
6.00207e-18
5.85569e-18
5.66023e-18
5.45938e-18
5.26365e-18
5.07091e-18
4.88286e-18
4.69797e-18
4.5173e-18
4.33873e-18
4.16298e-18
3.9874e-18
3.81154e-18
3.6322e-18
3.44778e-18
3.25383e-18
3.04661e-18
2.82006e-18
2.5672e-18
2.2756e-18
1.9391e-18
1.53979e-18
9.12589e-19
1.89306e-19
)
;

boundaryField
{
    top
    {
        type            zeroGradient;
    }
    bottom
    {
        type            zeroGradient;
    }
    rotatingWall
    {
        type            zeroGradient;
    }
    wall
    {
        type            zeroGradient;
    }
    frontAndBack
    {
        type            empty;
    }
}


// ************************************************************************* //
