/*--------------------------------*- C++ -*----------------------------------*\
| =========                 |                                                 |
| \\      /  F ield         | OpenFOAM: The Open Source CFD Toolbox           |
|  \\    /   O peration     | Version:  5.0                                   |
|   \\  /    A nd           | Web:      www.OpenFOAM.org                      |
|    \\/     M anipulation  |                                                 |
\*---------------------------------------------------------------------------*/
FoamFile
{
    version     2.0;
    format      ascii;
    class       surfaceScalarField;
    location    "0.3";
    object      phi;
}
// * * * * * * * * * * * * * * * * * * * * * * * * * * * * * * * * * * * * * //

dimensions      [0 3 -1 0 0 0 0];

internalField   nonuniform List<scalar> 
85
(
4.99996e-07
-2.97259e-15
4.99996e-07
-1.56237e-15
4.99996e-07
5.12657e-16
4.99996e-07
-4.49956e-16
4.04503e-16
1.49999e-06
-5.96733e-15
1.49999e-06
-3.51274e-15
1.49999e-06
8.75103e-16
1.49999e-06
-7.88921e-16
7.08476e-16
2.49998e-06
-6.48574e-15
2.49998e-06
-4.17593e-15
2.49998e-06
8.05273e-16
2.49998e-06
-7.49912e-16
6.72005e-16
3.49998e-06
-4.32244e-15
3.49998e-06
-2.96733e-15
3.49998e-06
4.57919e-16
3.49998e-06
-4.44439e-16
3.97506e-16
4.49998e-06
-4.76168e-16
4.49998e-06
-4.82504e-16
4.49998e-06
-1.94826e-17
4.49998e-06
-6.76156e-19
-2.662e-20
5.49998e-06
3.4619e-15
5.49998e-06
2.09502e-15
5.49998e-06
-4.94066e-16
5.49998e-06
4.44048e-16
-3.9791e-16
6.49998e-06
5.85124e-15
6.49998e-06
3.53544e-15
6.49998e-06
-8.31052e-16
6.49998e-06
7.50524e-16
-6.73047e-16
7.49998e-06
5.6269e-15
7.49998e-06
3.17068e-15
7.49998e-06
-8.8963e-16
7.49998e-06
7.90809e-16
-7.10021e-16
8.49999e-06
2.8735e-15
8.49999e-06
1.46452e-15
8.49999e-06
-5.1686e-16
8.49999e-06
4.5124e-16
-4.05564e-16
9.5e-06
9.5e-06
9.5e-06
9.5e-06
)
;

boundaryField
{
    top
    {
        type            calculated;
        value           uniform 0;
    }
    bottom
    {
        type            calculated;
        value           uniform 0;
    }
    inlet
    {
        type            calculated;
        value           nonuniform List<scalar> 10(-4.99996e-07 -1.49999e-06 -2.49998e-06 -3.49998e-06 -4.49998e-06 -5.49998e-06 -6.49998e-06 -7.49998e-06 -8.49999e-06 -9.5e-06);
    }
    outlet
    {
        type            calculated;
        value           nonuniform 0();
    }
    frontAndBack
    {
        type            empty;
        value           nonuniform 0();
    }
    procBoundary0to1
    {
        type            processor;
        value           nonuniform List<scalar> 10(4.99996e-07 1.49999e-06 2.49998e-06 3.49998e-06 4.49998e-06 5.49998e-06 6.49998e-06 7.49998e-06 8.49999e-06 9.5e-06);
    }
}


// ************************************************************************* //
