/*--------------------------------*- C++ -*----------------------------------*\
| =========                 |                                                 |
| \\      /  F ield         | OpenFOAM: The Open Source CFD Toolbox           |
|  \\    /   O peration     | Version:  5.0                                   |
|   \\  /    A nd           | Web:      www.OpenFOAM.org                      |
|    \\/     M anipulation  |                                                 |
\*---------------------------------------------------------------------------*/
FoamFile
{
    version     2.0;
    format      ascii;
    class       volVectorField;
    location    "0.3";
    object      U;
}
// * * * * * * * * * * * * * * * * * * * * * * * * * * * * * * * * * * * * * //

dimensions      [0 1 -1 0 0 0 0];

internalField   nonuniform List<vector> 
50
(
(0.00499996 -1.6762e-12 -1.7423e-33)
(0.00499996 -8.98451e-13 -5.06826e-33)
(0.00499996 2.79882e-13 -8.51022e-34)
(0.00499996 -2.44375e-13 -1.52141e-33)
(0.00499996 2.19601e-13 6.25822e-34)
(0.0149999 -4.85639e-12 2.78791e-45)
(0.0149999 -2.74602e-12 1.89226e-33)
(0.0149999 7.57911e-13 6.52346e-33)
(0.0149999 -6.75887e-13 -7.41774e-33)
(0.0149999 6.07404e-13 -2.45507e-33)
(0.0249998 -6.70263e-12 1.33792e-32)
(0.0249998 -4.12313e-12 -4.49291e-32)
(0.0249998 9.08292e-13 2.62538e-33)
(0.0249998 -8.30425e-13 -4.47457e-33)
(0.0249998 7.4519e-13 -4.91121e-33)
(0.0349998 -5.92792e-12 9.57109e-33)
(0.0349998 -3.9227e-12 -5.05935e-32)
(0.0349998 6.86445e-13 -5.27562e-33)
(0.0349998 -6.52357e-13 6.71878e-33)
(0.0349998 5.83722e-13 9.1348e-33)
(0.0449998 -2.59428e-12 -5.59304e-32)
(0.0449998 -1.86364e-12 2.64346e-32)
(0.0449998 2.36848e-13 -7.94227e-33)
(0.0449998 -2.40528e-13 -5.80293e-33)
(0.0449998 2.14751e-13 6.76806e-33)
(0.0549998 1.65056e-12 2.69447e-32)
(0.0549998 9.07507e-13 -2.04032e-32)
(0.0549998 -2.76721e-13 6.07246e-33)
(0.0549998 2.40514e-13 8.02165e-34)
(0.0549998 -2.16162e-13 -2.45678e-33)
(0.0649998 5.15653e-12 1.87501e-45)
(0.0649998 3.14322e-12 2.45952e-32)
(0.0649998 -7.19504e-13 3.95989e-33)
(0.0649998 6.5149e-13 -7.20383e-33)
(0.0649998 -5.84417e-13 2.95809e-33)
(0.0749998 6.2193e-12 5.38648e-32)
(0.0749998 3.63674e-12 1.77722e-32)
(0.0749998 -9.28626e-13 -2.62702e-33)
(0.0749998 8.34218e-13 1.18689e-32)
(0.0749998 -7.4822e-13 7.37032e-33)
(0.0849999 4.64859e-12 -1.61098e-32)
(0.0849999 2.53792e-12 -4.31047e-33)
(0.0849999 -7.65841e-13 2.62258e-33)
(0.0849999 6.75709e-13 4.70826e-33)
(0.0849999 -6.07149e-13 4.11539e-33)
(0.095 1.62691e-12 9.05826e-33)
(0.095 8.52482e-13 1.05414e-33)
(0.095 -2.84498e-13 1.78693e-33)
(0.095 2.48296e-13 -2.11686e-33)
(0.095 -2.233e-13 5.17208e-34)
)
;

boundaryField
{
    top
    {
        type            fixedValue;
        value           uniform (0.1 0 0);
    }
    bottom
    {
        type            fixedValue;
        value           uniform (0 0 0);
    }
    inlet
    {
        type            zeroGradient;
    }
    outlet
    {
        type            zeroGradient;
    }
    frontAndBack
    {
        type            empty;
    }
    procBoundary0to1
    {
        type            processor;
        value           nonuniform List<vector> 10((0.00499996 -2.21855e-13 3.33894e-33) (0.0149999 -6.07799e-13 1.93323e-33) (0.0249998 -7.47188e-13 -3.13074e-33) (0.0349998 -5.85161e-13 1.34879e-33) (0.0449998 -2.15893e-13 4.91295e-33) (0.0549998 2.14915e-13 8.18167e-45) (0.0649998 5.8425e-13 1.13599e-33) (0.0749998 7.47257e-13 1.12104e-32) (0.0849999 6.07693e-13 -4.4032e-33) (0.095 2.22109e-13 1.10434e-33));
    }
}


// ************************************************************************* //
