/*--------------------------------*- C++ -*----------------------------------*\
| =========                 |                                                 |
| \\      /  F ield         | OpenFOAM: The Open Source CFD Toolbox           |
|  \\    /   O peration     | Version:  5.0                                   |
|   \\  /    A nd           | Web:      www.OpenFOAM.org                      |
|    \\/     M anipulation  |                                                 |
\*---------------------------------------------------------------------------*/
FoamFile
{
    version     2.0;
    format      ascii;
    class       volScalarField;
    location    "2.1";
    object      shearRate;
}
// * * * * * * * * * * * * * * * * * * * * * * * * * * * * * * * * * * * * * //

dimensions      [0 0 -1 0 0 0 0];

internalField   nonuniform List<scalar> 
50
(
1.54491e-14
4.99519e-15
5.30625e-15
1.26003e-14
2.25167e-14
2.70741e-14
4.38941e-14
2.17508e-14
2.51478e-14
2.31411e-14
8.45438e-15
2.33908e-14
3.26964e-15
4.43686e-14
1.49404e-14
2.19429e-14
2.29465e-14
2.2274e-14
2.42653e-14
2.62309e-14
3.29342e-15
2.38596e-14
1.45351e-15
4.53058e-14
2.52919e-14
5.10653e-15
2.60572e-14
2.90526e-15
1.76782e-14
8.4632e-15
5.02796e-15
2.30758e-14
4.3496e-14
8.8107e-14
2.36231e-14
6.53009e-14
4.28864e-15
4.89475e-15
1.31703e-14
4.38019e-14
2.28177e-14
6.58853e-14
2.45464e-15
4.55216e-14
2.26394e-14
5.82666e-15
2.24078e-14
4.35214e-14
6.52919e-14
6.52893e-14
)
;

boundaryField
{
    top
    {
        type            zeroGradient;
    }
    bottom
    {
        type            symmetryPlane;
    }
    inlet
    {
        type            zeroGradient;
    }
    outlet
    {
        type            zeroGradient;
    }
    frontAndBack
    {
        type            empty;
    }
    procBoundary0to1
    {
        type            processor;
        value           nonuniform List<scalar> 10(1.13279e-14 2.251e-14 2.32097e-14 8.43571e-15 6.56991e-14 4.38181e-14 1.51889e-13 4.49657e-14 2.36945e-14 1.09912e-13);
    }
}


// ************************************************************************* //
