/*--------------------------------*- C++ -*----------------------------------*\
| =========                 |                                                 |
| \\      /  F ield         | OpenFOAM: The Open Source CFD Toolbox           |
|  \\    /   O peration     | Version:  5.0                                   |
|   \\  /    A nd           | Web:      www.OpenFOAM.org                      |
|    \\/     M anipulation  |                                                 |
\*---------------------------------------------------------------------------*/
FoamFile
{
    version     2.0;
    format      ascii;
    class       surfaceScalarField;
    location    "0.4";
    object      phi;
}
// * * * * * * * * * * * * * * * * * * * * * * * * * * * * * * * * * * * * * //

dimensions      [0 3 -1 0 0 0 0];

internalField   nonuniform List<scalar> 
760
(
9.87144e-09
1.21162e-11
9.85733e-09
1.41152e-11
9.85406e-09
3.27053e-12
9.85293e-09
1.12602e-12
9.85277e-09
1.64373e-13
9.85271e-09
5.70235e-14
9.85272e-09
-6.25834e-15
9.85271e-09
6.2894e-15
9.85272e-09
-8.82942e-15
9.85272e-09
1.87948e-15
9.85272e-09
1.46111e-16
9.85271e-09
4.72314e-15
9.85271e-09
-5.03525e-16
9.85271e-09
1.43964e-15
9.85271e-09
-7.94127e-16
9.85271e-09
6.67159e-16
9.85271e-09
-4.61886e-16
9.85271e-09
5.85458e-16
9.85271e-09
1.79632e-16
7.74815e-16
9.81127e-09
2.40813e-11
9.79763e-09
2.77566e-11
9.79456e-09
6.33912e-12
9.79342e-09
2.26855e-12
9.7933e-09
2.8062e-13
9.79322e-09
1.41628e-13
9.79325e-09
-3.43042e-14
9.79323e-09
2.84017e-14
9.79325e-09
-2.92247e-14
9.79324e-09
1.2174e-14
9.79324e-09
-5.94229e-15
9.79323e-09
1.40677e-14
9.79324e-09
-4.4198e-15
9.79323e-09
5.42909e-15
9.79324e-09
-3.51395e-15
9.79323e-09
2.77856e-15
9.79323e-09
-2.02378e-15
9.79323e-09
2.09974e-15
9.79323e-09
-4.24352e-16
2.08742e-15
9.69148e-09
3.53519e-11
9.67867e-09
4.05615e-11
9.67583e-09
9.18135e-12
9.67477e-09
3.3286e-12
9.67467e-09
3.83022e-13
9.67459e-09
2.21656e-13
9.67462e-09
-6.21481e-14
9.67459e-09
5.00714e-14
9.67461e-09
-4.92392e-14
9.6746e-09
2.21832e-14
9.67461e-09
-1.1883e-14
9.6746e-09
2.32807e-14
9.6746e-09
-8.31771e-15
9.6746e-09
9.34086e-15
9.6746e-09
-6.18394e-15
9.6746e-09
4.84029e-15
9.6746e-09
-3.57545e-15
9.6746e-09
3.57192e-15
9.6746e-09
-9.06189e-16
3.49156e-15
9.51264e-09
4.56012e-11
9.50107e-09
5.21364e-11
9.49856e-09
1.16927e-11
9.49762e-09
4.26943e-12
9.49753e-09
4.65403e-13
9.49746e-09
2.95264e-13
9.49749e-09
-8.98035e-14
9.49747e-09
7.11678e-14
9.49749e-09
-6.8633e-14
9.49748e-09
3.193e-14
9.49748e-09
-1.77798e-14
9.49747e-09
3.22728e-14
9.49748e-09
-1.21685e-14
9.49747e-09
1.31205e-14
9.49748e-09
-8.79197e-15
9.49747e-09
6.85839e-15
9.49748e-09
-5.09226e-15
9.49747e-09
5.02045e-15
9.49748e-09
-1.31307e-15
4.91179e-15
9.27581e-09
5.45283e-11
9.26582e-09
6.21246e-11
9.26373e-09
1.37832e-11
9.26294e-09
5.0589e-12
9.26288e-09
5.22893e-13
9.26282e-09
3.60677e-13
9.26285e-09
-1.17062e-13
9.26283e-09
9.14915e-14
9.26284e-09
-8.71492e-14
9.26283e-09
4.13244e-14
9.26284e-09
-2.35992e-14
9.26283e-09
4.0884e-14
9.26284e-09
-1.59676e-14
9.26283e-09
1.67388e-14
9.26283e-09
-1.13127e-14
9.26283e-09
8.79957e-15
9.26283e-09
-6.57e-15
9.26283e-09
6.41003e-15
9.26283e-09
-1.63164e-15
6.35418e-15
8.98235e-09
6.18633e-11
8.97426e-09
7.02109e-11
8.97266e-09
1.53781e-11
8.97205e-09
5.67079e-12
8.97202e-09
5.52052e-13
8.97197e-09
4.16434e-13
8.97199e-09
-1.43642e-13
8.97197e-09
1.10802e-13
8.97199e-09
-1.04436e-13
8.97198e-09
5.03493e-14
8.97199e-09
-2.93761e-14
8.97198e-09
4.89103e-14
8.97198e-09
-1.96811e-14
8.97198e-09
2.01357e-14
8.97198e-09
-1.3716e-14
8.97198e-09
1.06469e-14
8.97198e-09
-7.9861e-15
8.97198e-09
7.7262e-15
8.97198e-09
-1.90388e-15
7.75396e-15
8.63395e-09
6.73776e-11
8.62803e-09
7.61346e-11
8.62698e-09
1.64231e-11
8.62657e-09
6.08625e-12
8.62657e-09
5.51049e-13
8.62652e-09
4.61422e-13
8.62655e-09
-1.69157e-13
8.62653e-09
1.28851e-13
8.62655e-09
-1.20186e-13
8.62654e-09
5.89177e-14
8.62654e-09
-3.50765e-14
8.62654e-09
5.61671e-14
8.62654e-09
-2.32675e-14
8.62654e-09
2.32663e-14
8.62654e-09
-1.59716e-14
8.62654e-09
1.23684e-14
8.62654e-09
-9.31657e-15
8.62654e-09
8.94418e-15
8.62654e-09
-2.16423e-15
9.05711e-15
8.23265e-09
7.08905e-11
8.22908e-09
7.9699e-11
8.22862e-09
1.68862e-11
8.22841e-09
6.29462e-12
8.22844e-09
5.19903e-13
8.22841e-09
4.94903e-13
8.22843e-09
-1.93119e-13
8.22842e-09
1.45343e-13
8.22843e-09
-1.3406e-13
8.22842e-09
6.69489e-14
8.22843e-09
-4.06447e-14
8.22842e-09
6.24497e-14
8.22843e-09
-2.66842e-14
8.22842e-09
2.6072e-14
8.22842e-09
-1.80369e-14
8.22842e-09
1.39364e-14
8.22842e-09
-1.05423e-14
8.22842e-09
1.0034e-14
8.22842e-09
-2.43439e-15
1.02206e-14
7.78076e-09
7.22795e-11
7.77968e-09
8.07822e-11
7.7798e-09
1.67604e-11
7.7798e-09
6.29414e-12
7.77986e-09
4.60567e-13
7.77984e-09
5.16483e-13
7.77986e-09
-2.14896e-13
7.77985e-09
1.59935e-13
7.77986e-09
-1.45714e-13
7.77985e-09
7.42923e-14
7.77986e-09
-4.59831e-14
7.77985e-09
6.75749e-14
7.77985e-09
-2.98509e-14
7.77985e-09
2.84913e-14
7.77985e-09
-1.98685e-14
7.77985e-09
1.5311e-14
7.77985e-09
-1.16299e-14
7.77985e-09
1.09685e-14
7.77985e-09
-2.74254e-15
1.11844e-14
7.2809e-09
7.14882e-11
7.28234e-09
7.93477e-11
7.28303e-09
1.60653e-11
7.28324e-09
6.0922e-12
7.28332e-09
3.7696e-13
7.28331e-09
5.26096e-13
7.28333e-09
-2.33728e-13
7.28332e-09
1.72203e-13
7.28332e-09
-1.54776e-13
7.28332e-09
8.0765e-14
7.28332e-09
-5.0938e-14
7.28332e-09
7.13518e-14
7.28332e-09
-3.26835e-14
7.28332e-09
3.04498e-14
7.28332e-09
-2.14064e-14
7.28332e-09
1.64548e-14
7.28332e-09
-1.25519e-14
7.28332e-09
1.1712e-14
7.28332e-09
-3.09793e-15
1.19061e-14
6.73598e-09
6.85368e-11
6.73987e-09
7.54545e-11
6.74109e-09
1.48486e-11
6.74147e-09
5.70541e-12
6.74158e-09
2.74873e-13
6.74158e-09
5.23914e-13
6.74159e-09
-2.4869e-13
6.74158e-09
1.81646e-13
6.74159e-09
-1.60845e-13
6.74159e-09
8.60982e-14
6.74159e-09
-5.53094e-14
6.74159e-09
7.36002e-14
6.74159e-09
-3.50499e-14
6.74159e-09
3.18677e-14
6.74159e-09
-2.25877e-14
6.74159e-09
1.73128e-14
6.74159e-09
-1.32607e-14
6.74159e-09
1.22329e-14
6.74159e-09
-3.50864e-15
1.23299e-14
6.14914e-09
6.35313e-11
6.15533e-09
6.92681e-11
6.15699e-09
1.31855e-11
6.15754e-09
5.15913e-12
6.15765e-09
1.61825e-13
6.15766e-09
5.10275e-13
6.15767e-09
-2.58713e-13
6.15767e-09
1.8764e-13
6.15767e-09
-1.63473e-13
6.15767e-09
8.99674e-14
6.15767e-09
-5.88234e-14
6.15767e-09
7.41306e-14
6.15767e-09
-3.68071e-14
6.15767e-09
3.26463e-14
6.15767e-09
-2.3328e-14
6.15767e-09
1.78326e-14
6.15767e-09
-1.37152e-14
6.15767e-09
1.2489e-14
6.15767e-09
-3.95514e-15
1.24245e-14
5.52379e-09
5.66743e-11
5.53199e-09
6.10703e-11
5.53399e-09
1.11781e-11
5.53467e-09
4.4867e-12
5.53478e-09
4.67921e-14
5.53481e-09
4.8553e-13
5.53481e-09
-2.62538e-13
5.53481e-09
1.89433e-13
5.53481e-09
-1.62162e-13
5.53481e-09
9.19323e-14
5.53481e-09
-6.11366e-14
5.53481e-09
7.27592e-14
5.53481e-09
-3.77527e-14
5.53481e-09
3.26757e-14
5.53481e-09
-2.3536e-14
5.53481e-09
1.79376e-14
5.53481e-09
-1.38489e-14
5.53481e-09
1.2442e-14
5.53481e-09
-4.41094e-15
1.21444e-14
4.86355e-09
4.82763e-11
4.87335e-09
5.12695e-11
4.87557e-09
8.95368e-12
4.87633e-09
3.72817e-12
4.87644e-09
-6.01114e-14
4.87648e-09
4.49911e-13
4.87647e-09
-2.58736e-13
4.87647e-09
1.86094e-13
4.87647e-09
-1.56342e-13
4.87647e-09
9.14615e-14
4.87647e-09
-6.18081e-14
4.87647e-09
6.92886e-14
4.87647e-09
-3.76615e-14
4.87647e-09
3.18187e-14
4.87647e-09
-2.30929e-14
4.87647e-09
1.75515e-14
4.87647e-09
-1.35994e-14
4.87647e-09
1.2041e-14
4.87647e-09
-4.81535e-15
1.1473e-14
4.17224e-09
3.87675e-11
4.1831e-09
4.04112e-11
4.1854e-09
6.66075e-12
4.1862e-09
2.92853e-12
4.18628e-09
-1.48059e-13
4.18633e-09
4.03319e-13
4.18632e-09
-2.45655e-13
4.18633e-09
1.76493e-13
4.18632e-09
-1.45351e-13
4.18632e-09
8.78701e-14
4.18632e-09
-6.02943e-14
4.18632e-09
6.35142e-14
4.18632e-09
-3.62381e-14
4.18632e-09
2.99166e-14
4.18632e-09
-2.18652e-14
4.18632e-09
1.65674e-14
4.18632e-09
-1.28747e-14
4.18632e-09
1.12352e-14
4.18632e-09
-5.09148e-15
1.03816e-14
3.45388e-09
2.87099e-11
3.46511e-09
2.91868e-11
3.4673e-09
4.46421e-12
3.4681e-09
2.13548e-12
3.46815e-09
-2.05978e-13
3.46821e-09
3.45146e-13
3.46819e-09
-2.21427e-13
3.46821e-09
1.59237e-13
3.46819e-09
-1.28425e-13
3.4682e-09
8.03269e-14
3.46819e-09
-5.59149e-14
3.4682e-09
5.52331e-14
3.4682e-09
-3.31396e-14
3.4682e-09
2.67656e-14
3.4682e-09
-1.96837e-14
3.4682e-09
1.48755e-14
3.4682e-09
-1.15806e-14
3.4682e-09
9.96434e-15
3.4682e-09
-5.1437e-15
8.84347e-15
2.71263e-09
1.88112e-11
2.72337e-09
1.84432e-11
2.7253e-09
2.53872e-12
2.72603e-09
1.39692e-12
2.72605e-09
-2.23062e-13
2.72612e-09
2.74038e-13
2.72608e-09
-1.83923e-13
2.72611e-09
1.32648e-13
2.72609e-09
-1.04687e-13
2.7261e-09
6.7796e-14
2.72609e-09
-4.78327e-14
2.7261e-09
4.42453e-14
2.7261e-09
-2.79404e-14
2.7261e-09
2.21185e-14
2.7261e-09
-1.63533e-14
2.7261e-09
1.23301e-14
2.7261e-09
-9.60172e-15
2.7261e-09
8.15656e-15
2.7261e-09
-4.79833e-15
6.87324e-15
1.95277e-09
9.939e-12
1.96203e-09
9.192e-12
1.9635e-09
1.06154e-12
1.96414e-09
7.57961e-13
1.96411e-09
-1.89284e-13
1.96419e-09
1.87651e-13
1.96414e-09
-1.30717e-13
1.96418e-09
9.46974e-14
1.96415e-09
-7.31245e-14
1.96417e-09
4.90195e-14
1.96415e-09
-3.50209e-14
1.96417e-09
3.03426e-14
1.96416e-09
-2.01527e-14
1.96417e-09
1.56737e-14
1.96416e-09
-1.16395e-14
1.96416e-09
8.76177e-15
1.96416e-09
-6.8175e-15
1.96416e-09
5.72327e-15
1.96416e-09
-3.82808e-15
4.52017e-15
1.17873e-09
3.13783e-12
1.18531e-09
2.61846e-12
1.18616e-09
2.03161e-13
1.18667e-09
2.56186e-13
1.18657e-09
-9.57547e-14
1.18668e-09
8.21087e-14
1.18661e-09
-5.88157e-14
1.18666e-09
4.28113e-14
1.18662e-09
-3.24263e-14
1.18664e-09
2.24084e-14
1.18663e-09
-1.61763e-14
1.18664e-09
1.32357e-14
1.18663e-09
-9.18005e-15
1.18664e-09
7.04084e-15
1.18663e-09
-5.24587e-15
1.18664e-09
3.94999e-15
1.18663e-09
-3.06225e-15
1.18664e-09
2.55504e-15
1.18664e-09
-1.9055e-15
1.87888e-15
3.9481e-10
3.97429e-10
3.97632e-10
3.97888e-10
3.97792e-10
3.97874e-10
3.97815e-10
3.97858e-10
3.97826e-10
3.97848e-10
3.97832e-10
3.97845e-10
3.97836e-10
3.97843e-10
3.97838e-10
3.97842e-10
3.97839e-10
3.97841e-10
3.97839e-10
)
;

boundaryField
{
    top
    {
        type            calculated;
        value           uniform 0;
    }
    bottom
    {
        type            symmetryPlane;
        value           uniform 0;
    }
    inlet
    {
        type            calculated;
        value           nonuniform List<scalar> 
20
(
-9.88356e-09
-9.82324e-09
-9.70275e-09
-9.52289e-09
-9.28474e-09
-8.98968e-09
-8.63947e-09
-8.23616e-09
-7.78215e-09
-7.28011e-09
-6.73303e-09
-6.14413e-09
-5.51693e-09
-4.85515e-09
-4.16274e-09
-3.44382e-09
-2.70273e-09
-1.9439e-09
-1.17193e-09
-3.91672e-10
)
;
    }
    outlet
    {
        type            calculated;
        value           nonuniform List<scalar> 
20
(
9.85271e-09
9.79323e-09
9.6746e-09
9.49747e-09
9.26283e-09
8.97198e-09
8.62654e-09
8.22842e-09
7.77985e-09
7.28332e-09
6.74159e-09
6.15767e-09
5.53481e-09
4.87648e-09
4.18632e-09
3.4682e-09
2.7261e-09
1.96417e-09
1.18664e-09
3.97841e-10
)
;
    }
    frontAndBack
    {
        type            empty;
        value           nonuniform 0();
    }
}


// ************************************************************************* //
