/*--------------------------------*- C++ -*----------------------------------*\
| =========                 |                                                 |
| \\      /  F ield         | OpenFOAM: The Open Source CFD Toolbox           |
|  \\    /   O peration     | Version:  5.0                                   |
|   \\  /    A nd           | Web:      www.OpenFOAM.org                      |
|    \\/     M anipulation  |                                                 |
\*---------------------------------------------------------------------------*/
FoamFile
{
    version     2.0;
    format      ascii;
    class       surfaceScalarField;
    location    "0.4";
    object      phi;
}
// * * * * * * * * * * * * * * * * * * * * * * * * * * * * * * * * * * * * * //

dimensions      [0 3 -1 0 0 0 0];

internalField   nonuniform List<scalar> 
85
(
0.00020172
1.08871e-09
0.000201722
-2.40813e-09
0.000201721
1.30873e-09
0.000201759
-3.85438e-08
0.000201906
-1.46562e-07
0.000206809
-4.90318e-06
0.000212085
-5.27644e-06
0.000212754
-6.68792e-07
0.000212822
-6.76054e-08
-3.97138e-07
0.000185581
2.77326e-09
0.000185585
-5.97824e-09
0.000185579
6.96128e-09
0.000185609
-6.80314e-08
0.000185558
-9.63069e-08
0.000183494
-2.83871e-06
0.00018145
-3.23267e-06
0.000181322
-5.40352e-07
0.000181372
-1.18161e-07
-2.75118e-07
0.000153307
3.35185e-09
0.000153308
-7.02921e-09
0.000153304
1.03311e-08
0.000153295
-5.85782e-08
0.000153215
-1.6363e-08
0.000151706
-1.32954e-06
0.000150076
-1.60313e-06
0.000149821
-2.85424e-07
0.000149784
-8.13443e-08
-1.47141e-07
0.000104895
2.12847e-09
0.000104892
-4.31407e-09
0.000104895
7.26948e-09
0.000104864
-2.69215e-08
0.000104832
1.57192e-08
0.000103865
-3.63077e-07
0.000102729
-4.6675e-07
0.00010252
-7.67884e-08
0.000102463
-2.41862e-08
-5.0898e-08
4.03453e-05
4.0341e-05
4.03482e-05
4.03213e-05
4.0337e-05
3.9974e-05
3.95072e-05
3.94304e-05
3.94062e-05
)
;

boundaryField
{
    top
    {
        type            calculated;
        value           uniform 0;
    }
    bottom
    {
        type            symmetryPlane;
        value           uniform 0;
    }
    inlet
    {
        type            calculated;
        value           nonuniform List<scalar> 5(-0.000201721 -0.000185583 -0.000153307 -0.000104894 -4.03432e-05);
    }
    outlet
    {
        type            calculated;
        value           nonuniform List<scalar> 5(0.000213219 0.00018125 0.000149656 0.000102367 3.93553e-05);
    }
    frontAndBack
    {
        type            empty;
        value           nonuniform 0();
    }
}


// ************************************************************************* //
