/*--------------------------------*- C++ -*----------------------------------*\
| =========                 |                                                 |
| \\      /  F ield         | OpenFOAM: The Open Source CFD Toolbox           |
|  \\    /   O peration     | Version:  5.0                                   |
|   \\  /    A nd           | Web:      www.OpenFOAM.org                      |
|    \\/     M anipulation  |                                                 |
\*---------------------------------------------------------------------------*/
FoamFile
{
    version     2.0;
    format      ascii;
    class       volVectorField;
    location    "0.4";
    object      U;
}
// * * * * * * * * * * * * * * * * * * * * * * * * * * * * * * * * * * * * * //

dimensions      [0 1 -1 0 0 0 0];

internalField   nonuniform List<vector> 
400
(
(0.000197685 1.2159e-08 -4.59606e-30)
(0.000197148 1.41518e-08 -2.82284e-29)
(0.000197132 3.28975e-09 -2.01682e-29)
(0.000197038 1.13998e-09 0)
(0.000197073 1.61894e-10 0)
(0.000197042 6.06027e-11 2.08797e-29)
(0.000197063 -8.19239e-12 2.07676e-29)
(0.000197048 7.97753e-12 -2.07156e-29)
(0.000197059 -9.99607e-12 -2.0717e-29)
(0.000197051 2.86069e-12 0)
(0.000197057 -2.86466e-13 8.48795e-32)
(0.000197052 5.05594e-12 0)
(0.000197056 -1.07198e-12 0)
(0.000197053 1.65552e-12 0)
(0.000197055 -1.08191e-12 0)
(0.000197054 7.7985e-13 2.09989e-29)
(0.000197055 -6.26339e-13 -1.44315e-32)
(0.000197054 7.11023e-13 9.10023e-44)
(0.000197054 5.52125e-14 -1.8078e-51)
(0.000197054 8.59334e-13 -2.10944e-29)
(0.000196477 3.64065e-08 -1.08453e-42)
(0.000195954 4.21545e-08 -1.05173e-29)
(0.000195941 9.69961e-09 2.46618e-30)
(0.000195849 3.41998e-09 -1.75581e-29)
(0.000195883 4.53203e-10 0)
(0.000195852 1.982e-10 0)
(0.000195874 -3.86e-11 -4.18695e-31)
(0.000195858 3.33923e-11 3.60207e-29)
(0.00019587 -3.73255e-11 2.28479e-31)
(0.000195861 1.32358e-11 -3.5753e-29)
(0.000195867 -5.28189e-12 -1.79202e-29)
(0.000195863 1.859e-11 -1.79798e-29)
(0.000195866 -4.46092e-12 0)
(0.000195864 6.73724e-12 0)
(0.000195865 -4.11378e-12 -1.79456e-29)
(0.000195864 3.36186e-12 -5.42417e-32)
(0.000195865 -2.36183e-12 1.78848e-29)
(0.000195864 2.60245e-12 1.79024e-29)
(0.000195865 -1.95569e-13 -1.39753e-32)
(0.000195865 2.76352e-12 -1.79832e-29)
(0.000194067 5.98347e-08 -5.11043e-30)
(0.000193572 6.88396e-08 9.02497e-29)
(0.000193565 1.56719e-08 1.83015e-29)
(0.000193475 5.64011e-09 -1.77276e-29)
(0.00019351 6.77429e-10 -1.80259e-29)
(0.00019348 3.62191e-10 1.08588e-31)
(0.000193501 -9.36866e-11 -5.06893e-32)
(0.000193485 7.66838e-11 1.79156e-29)
(0.000193497 -7.71646e-11 1.30064e-32)
(0.000193489 3.34786e-11 -1.7866e-29)
(0.000193495 -1.70172e-11 1.79202e-29)
(0.00019349 3.67725e-11 3.56509e-33)
(0.000193493 -1.24175e-11 -1.79136e-29)
(0.000193491 1.44628e-11 -1.78914e-29)
(0.000193493 -9.51007e-12 3.58137e-29)
(0.000193491 7.45634e-12 1.79046e-29)
(0.000193492 -5.49994e-12 -3.58134e-29)
(0.000193492 5.58532e-12 4.92936e-33)
(0.000193492 -1.29248e-12 3.32499e-33)
(0.000193492 5.5112e-12 -5.13013e-33)
(0.00019047 8.15314e-08 -5.54379e-29)
(0.000190015 9.34e-08 1.38721e-28)
(0.000190017 2.10641e-08 -3.6553e-29)
(0.000189932 7.66464e-09 -2.42316e-29)
(0.000189968 8.60442e-10 1.80246e-29)
(0.000189937 5.20065e-10 1.8155e-29)
(0.000189959 -1.51745e-10 1.776e-29)
(0.000189943 1.21306e-10 1.44099e-31)
(0.000189954 -1.18068e-10 -1.79388e-29)
(0.000189946 5.40533e-11 1.79438e-29)
(0.000189952 -2.96187e-11 1.77948e-29)
(0.000189948 5.56507e-11 -3.59436e-32)
(0.000189951 -2.03626e-11 -4.34751e-32)
(0.000189948 2.25032e-11 2.36304e-32)
(0.00018995 -1.4956e-11 -5.40567e-32)
(0.000189949 1.16735e-11 -1.19509e-32)
(0.00018995 -8.61748e-12 1.78983e-29)
(0.000189949 8.57912e-12 -1.78844e-29)
(0.00018995 -2.23212e-12 -1.73385e-32)
(0.000189949 8.33369e-12 3.59647e-29)
(0.000185707 1.00852e-07 1.72691e-28)
(0.000185305 1.15126e-07 -1.32249e-28)
(0.000185318 2.57049e-08 -5.47327e-29)
(0.000185238 9.41099e-09 -9.95789e-30)
(0.000185274 1.00133e-09 3.54362e-29)
(0.000185245 6.60727e-10 1.78137e-29)
(0.000185266 -2.07386e-10 0)
(0.00018525 1.63282e-10 -1.66606e-31)
(0.000185262 -1.56421e-10 0)
(0.000185253 7.36058e-11 3.5753e-29)
(0.000185259 -4.14774e-11 -7.29308e-32)
(0.000185255 7.34337e-11 -4.1108e-32)
(0.000185258 -2.82831e-11 1.79126e-29)
(0.000185256 2.99751e-11 -8.92549e-44)
(0.000185257 -2.01903e-11 2.061e-32)
(0.000185256 1.57528e-11 -1.78873e-29)
(0.000185257 -1.17466e-11 1.7906e-29)
(0.000185256 1.14856e-11 1.78923e-29)
(0.000185257 -2.99933e-12 -9.34882e-33)
(0.000185257 1.13248e-11 6.64531e-33)
(0.000179805 1.17234e-07 -1.02089e-29)
(0.000179468 1.33342e-07 -1.92361e-28)
(0.000179493 2.94234e-08 3.54486e-29)
(0.00017942 1.08231e-08 4.37754e-30)
(0.000179457 1.08959e-09 -1.80211e-29)
(0.000179428 7.82267e-10 -4.5152e-31)
(0.000179449 -2.6115e-10 5.5901e-31)
(0.000179433 2.02902e-10 -3.8859e-31)
(0.000179444 -1.92316e-10 0)
(0.000179436 9.18265e-11 1.77899e-29)
(0.000179442 -5.30108e-11 -1.76628e-29)
(0.000179438 9.01459e-11 -1.78414e-29)
(0.000179441 -3.56378e-11 1.79609e-29)
(0.000179439 3.70062e-11 -1.78654e-29)
(0.00017944 -2.50895e-11 1.79794e-29)
(0.000179439 1.94564e-11 1.7887e-29)
(0.00017944 -1.45399e-11 -1.7912e-29)
(0.000179439 1.41701e-11 -2.23187e-32)
(0.00017944 -3.5431e-12 -1.78949e-29)
(0.00017944 1.40842e-11 -1.79775e-29)
(0.000172801 1.30184e-07 -6.78476e-43)
(0.000172536 1.47465e-07 9.72878e-29)
(0.000172576 3.20853e-08 -5.17919e-31)
(0.00017251 1.18576e-08 -9.43862e-30)
(0.000172547 1.11837e-09 9.08022e-31)
(0.000172519 8.83443e-10 -1.78141e-29)
(0.00017254 -3.1347e-10 -1.73025e-29)
(0.000172524 2.40346e-10 3.54801e-29)
(0.000172535 -2.25467e-10 1.80901e-29)
(0.000172527 1.09578e-10 -3.57531e-29)
(0.000172533 -6.45117e-11 1.82287e-29)
(0.000172529 1.0552e-10 1.7946e-29)
(0.000172532 -4.30858e-11 1.79403e-29)
(0.00017253 4.35453e-11 -1.79328e-29)
(0.000172531 -2.97755e-11 -3.58179e-29)
(0.00017253 2.31303e-11 5.36853e-29)
(0.000172531 -1.74005e-11 2.38719e-40)
(0.000172531 1.67322e-11 -1.79024e-29)
(0.000172531 -4.07385e-12 1.79157e-29)
(0.000172531 1.69261e-11 -1.70845e-32)
(0.000164735 1.39285e-07 1.09581e-28)
(0.00016455 1.57032e-07 6.92619e-29)
(0.000164604 3.36034e-08 -1.81129e-29)
(0.000164547 1.24845e-08 9.71012e-30)
(0.000164584 1.08575e-09 1.80169e-29)
(0.000164557 9.62102e-10 -1.72386e-29)
(0.000164577 -3.63132e-10 -1.83536e-29)
(0.000164562 2.7504e-10 1.86677e-29)
(0.000164573 -2.55262e-10 1.81155e-29)
(0.000164565 1.26108e-10 1.20676e-31)
(0.000164571 -7.57856e-11 1.75592e-29)
(0.000164567 1.19133e-10 1.79555e-29)
(0.00016457 -4.99991e-11 -1.79761e-29)
(0.000164567 4.95159e-11 -8.40707e-32)
(0.000164569 -3.41113e-11 1.78457e-29)
(0.000164568 2.63471e-11 1.79275e-29)
(0.000164569 -1.98729e-11 1.59037e-40)
(0.000164568 1.90451e-11 -1.78882e-29)
(0.000164569 -4.5832e-12 1.79169e-29)
(0.000164568 1.93106e-11 3.59551e-29)
(0.000155655 1.4423e-07 -1.19675e-28)
(0.000155555 1.61718e-07 -1.25112e-28)
(0.000155624 3.39373e-08 1.80619e-29)
(0.000155575 1.2691e-08 4.76145e-30)
(0.000155612 9.93792e-10 -1.80148e-29)
(0.000155586 1.01737e-09 -6.24145e-31)
(0.000155605 -4.09311e-10 1.75288e-29)
(0.000155591 3.06318e-10 -3.07914e-31)
(0.000155602 -2.80967e-10 -1.79385e-29)
(0.000155594 1.41669e-10 3.57532e-29)
(0.0001556 -8.67952e-11 1.79201e-29)
(0.000155595 1.30669e-10 -7.54549e-32)
(0.000155598 -5.67229e-11 -3.58252e-29)
(0.000155596 5.4769e-11 -1.78016e-29)
(0.000155598 -3.80314e-11 3.58534e-29)
(0.000155597 2.93878e-11 1.78849e-29)
(0.000155597 -2.2283e-11 -1.79022e-29)
(0.000155597 2.10869e-11 -3.58203e-29)
(0.000155597 -5.15282e-12 1.78913e-29)
(0.000155597 2.15603e-11 3.59807e-29)
(0.000145614 1.44836e-07 -1.25982e-28)
(0.000145601 1.61359e-07 -1.24763e-28)
(0.000145684 3.30997e-08 1.80099e-29)
(0.000145644 1.24825e-08 1.97436e-41)
(0.000145681 8.48406e-10 -1.94736e-29)
(0.000145655 1.04847e-09 -3.9558e-41)
(0.000145675 -4.50274e-10 -1.89446e-29)
(0.00014566 3.3342e-10 -3.44764e-31)
(0.000145671 -3.01889e-10 3.56514e-29)
(0.000145663 1.55539e-10 -1.77204e-29)
(0.000145669 -9.71334e-11 -1.77654e-29)
(0.000145665 1.39621e-10 1.78892e-29)
(0.000145668 -6.27168e-11 3.58658e-29)
(0.000145665 5.9196e-11 -1.78963e-29)
(0.000145667 -4.14462e-11 -3.58178e-29)
(0.000145666 3.18761e-11 1.78995e-29)
(0.000145667 -2.42614e-11 -5.74298e-47)
(0.000145666 2.27899e-11 1.79193e-29)
(0.000145667 -5.82141e-12 1.79047e-29)
(0.000145666 2.32035e-11 7.98616e-41)
(0.000134672 1.4106e-07 -1.17945e-28)
(0.000134746 1.55974e-07 0)
(0.000134841 3.11572e-08 3.15435e-29)
(0.000134809 1.18833e-08 2.15913e-29)
(0.000134846 6.594e-10 -1.8011e-29)
(0.000134821 1.05582e-09 1.85114e-29)
(0.00013484 -4.84611e-10 -5.38586e-31)
(0.000134826 3.55391e-10 -1.70934e-29)
(0.000134836 -3.17212e-10 1.76892e-29)
(0.000134829 1.67506e-10 1.9804e-41)
(0.000134834 -1.06622e-10 -5.15254e-31)
(0.00013483 1.45787e-10 -4.76662e-40)
(0.000134833 -6.80024e-11 -3.58715e-29)
(0.000134831 6.26037e-11 -5.78042e-32)
(0.000134832 -4.41777e-11 3.57744e-29)
(0.000134831 3.39284e-11 1.79162e-29)
(0.000134832 -2.59287e-11 -7.95187e-41)
(0.000134832 2.40569e-11 -3.57864e-29)
(0.000134832 -6.57197e-12 7.96834e-41)
(0.000134832 2.44043e-11 3.5985e-29)
(0.000122894 1.33025e-07 1.10452e-28)
(0.00012305 1.45782e-07 1.72216e-29)
(0.000123155 2.82327e-08 3.58217e-29)
(0.00012313 1.09355e-08 -1.77265e-29)
(0.000123166 4.40106e-10 -1.61605e-29)
(0.000123143 1.0398e-09 1.7094e-29)
(0.000123161 -5.10162e-10 1.17536e-30)
(0.000123148 3.71195e-10 -4.18402e-31)
(0.000123157 -3.26164e-10 2.72494e-31)
(0.00012315 1.76941e-10 1.76809e-29)
(0.000123156 -1.14618e-10 -1.77309e-29)
(0.000123152 1.48608e-10 -1.79902e-29)
(0.000123155 -7.22473e-11 1.7966e-29)
(0.000123153 6.48654e-11 -1.77704e-29)
(0.000123154 -4.61752e-11 4.73312e-32)
(0.000123153 3.53554e-11 -1.84524e-32)
(0.000123154 -2.71516e-11 7.75902e-44)
(0.000123153 2.48765e-11 1.78629e-29)
(0.000123153 -7.46657e-12 -1.79224e-29)
(0.000123153 2.4957e-11 -1.79639e-29)
(0.00011035 1.21033e-07 -5.07361e-30)
(0.00011058 1.31224e-07 -1.71648e-29)
(0.000110692 2.45048e-08 4.46053e-29)
(0.000110674 9.6984e-09 -2.07033e-30)
(0.000110708 2.07297e-10 -3.60173e-29)
(0.000110686 1.00123e-09 -7.45147e-31)
(0.000110703 -5.24637e-10 1.27042e-30)
(0.000110691 3.79357e-10 -4.55013e-31)
(0.0001107 -3.27717e-10 1.82334e-29)
(0.000110693 1.8291e-10 -3.87649e-44)
(0.000110698 -1.20669e-10 4.12388e-31)
(0.000110695 1.47908e-10 1.08622e-31)
(0.000110697 -7.4966e-11 1.79744e-29)
(0.000110695 6.57204e-11 6.81406e-32)
(0.000110697 -4.7137e-11 -1.79088e-29)
(0.000110696 3.59602e-11 3.57782e-29)
(0.000110696 -2.76933e-11 -1.79168e-29)
(0.000110696 2.50798e-11 -1.79236e-29)
(0.000110696 -8.35696e-12 1.79046e-29)
(0.000110696 2.4725e-11 -7.98619e-41)
(9.71147e-05 1.05594e-07 8.03305e-29)
(9.74057e-05 1.12988e-07 0)
(9.75205e-05 2.02039e-08 1.78331e-29)
(9.7508e-05 8.24623e-09 -1.76267e-30)
(9.75407e-05 -1.98912e-11 -1.80083e-29)
(9.75203e-05 9.40866e-10 -1.70536e-29)
(9.75361e-05 -5.25478e-10 -3.99729e-41)
(9.75246e-05 3.7835e-10 1.83473e-29)
(9.7533e-05 -3.20898e-10 1.76215e-29)
(9.75267e-05 1.84852e-10 3.87628e-44)
(9.75313e-05 -1.23871e-10 -3.88569e-44)
(9.7528e-05 1.43108e-10 -2.30701e-31)
(9.75305e-05 -7.60831e-11 1.78413e-29)
(9.75287e-05 6.49767e-11 -2.1934e-31)
(9.753e-05 -4.70039e-11 -3.5873e-29)
(9.75291e-05 3.58166e-11 3.57753e-29)
(9.75297e-05 -2.77338e-11 1.48865e-32)
(9.75293e-05 2.46879e-11 -1.78796e-29)
(9.75296e-05 -9.29323e-12 2.20277e-32)
(9.75295e-05 2.3885e-11 -1.79834e-29)
(8.32664e-05 8.74459e-08 4.73289e-29)
(8.36018e-05 9.20248e-08 1.7437e-30)
(8.37147e-05 1.56086e-08 0)
(8.37066e-05 6.66551e-09 2.37822e-45)
(8.37366e-05 -2.20338e-10 2.03835e-29)
(8.37181e-05 8.58885e-10 -3.93126e-46)
(8.37325e-05 -5.09487e-10 -2.00984e-41)
(8.3722e-05 3.66054e-10 1.78572e-29)
(8.37297e-05 -3.04504e-10 1.82711e-45)
(8.37239e-05 1.81019e-10 -1.78768e-29)
(8.37281e-05 -1.23372e-10 -3.58396e-29)
(8.37251e-05 1.34079e-10 1.7767e-29)
(8.37274e-05 -7.45805e-11 -7.90579e-41)
(8.37258e-05 6.23033e-11 -2.38589e-40)
(8.3727e-05 -4.53724e-11 1.79088e-29)
(8.37261e-05 3.44006e-11 -1.78996e-29)
(8.37267e-05 -2.66736e-11 1.79282e-29)
(8.37263e-05 2.3481e-11 -7.95023e-41)
(8.37265e-05 -9.96139e-12 7.95897e-41)
(8.37265e-05 2.20324e-11 1.79834e-29)
(6.88881e-05 6.75607e-08 -2.96282e-29)
(6.92456e-05 6.95504e-08 -1.7042e-29)
(6.93512e-05 1.1032e-08 1.55838e-44)
(6.93463e-05 5.04955e-09 -2.12232e-29)
(6.93729e-05 -3.72398e-10 -1.80095e-29)
(6.93566e-05 7.55189e-10 -8.43676e-31)
(6.93694e-05 -4.73623e-10 1.98683e-41)
(6.936e-05 3.403e-10 1.72803e-29)
(6.93668e-05 -2.77158e-10 1.83077e-29)
(6.93617e-05 1.70672e-10 -3.87651e-44)
(6.93654e-05 -1.17933e-10 -1.81815e-29)
(6.93628e-05 1.20035e-10 1.33139e-31)
(6.93648e-05 -7.04668e-11 3.59234e-29)
(6.93634e-05 5.74359e-11 1.72081e-31)
(6.93644e-05 -4.2143e-11 -3.57518e-29)
(6.93637e-05 3.19184e-11 0)
(6.93642e-05 -2.48788e-11 -1.71764e-32)
(6.93638e-05 2.14857e-11 1.7875e-29)
(6.93641e-05 -1.04618e-11 -2.85844e-32)
(6.9364e-05 1.94971e-11 -1.79834e-29)
(5.40662e-05 4.71355e-08 -5.04449e-30)
(5.44174e-05 4.70394e-08 -1.70251e-29)
(5.45099e-05 6.81032e-09 1.40882e-29)
(5.45072e-05 3.49044e-09 3.08715e-30)
(5.45296e-05 -4.52182e-10 -3.87822e-29)
(5.45158e-05 6.26098e-10 0)
(5.45266e-05 -4.12525e-10 -8.85073e-31)
(5.45187e-05 2.96978e-10 6.55627e-31)
(5.45244e-05 -2.36765e-10 1.79375e-29)
(5.45201e-05 1.50863e-10 1.78769e-29)
(5.45232e-05 -1.0589e-10 -1.79196e-29)
(5.4521e-05 1.01016e-10 -1.77393e-29)
(5.45227e-05 -6.22004e-11 1.77903e-29)
(5.45215e-05 4.96768e-11 -9.87408e-32)
(5.45224e-05 -3.6627e-11 -1.79842e-29)
(5.45217e-05 2.76436e-11 1.79457e-29)
(5.45222e-05 -2.14846e-11 3.98373e-41)
(5.45219e-05 1.83991e-11 3.2292e-32)
(5.45221e-05 -1.01432e-11 1.79407e-29)
(5.4522e-05 1.59098e-11 -3.99313e-41)
(3.88897e-05 2.77773e-08 0)
(3.92e-05 2.64279e-08 -8.87242e-29)
(3.92735e-05 3.32001e-09 -1.78261e-29)
(3.92719e-05 2.07913e-09 -7.35248e-30)
(3.92892e-05 -4.33255e-10 0)
(3.92785e-05 4.64569e-10 0)
(3.92868e-05 -3.19096e-10 1.88098e-29)
(3.92807e-05 2.30716e-10 3.97685e-41)
(3.92851e-05 -1.79729e-10 -3.50049e-44)
(3.92817e-05 1.18804e-10 1.55056e-43)
(3.92842e-05 -8.43545e-11 -7.94194e-41)
(3.92825e-05 7.49903e-11 1.80246e-29)
(3.92838e-05 -4.8926e-11 -7.95463e-41)
(3.92829e-05 3.83266e-11 0)
(3.92836e-05 -2.84382e-11 1.01626e-47)
(3.92831e-05 2.13961e-11 -1.78997e-29)
(3.92834e-05 -1.67184e-11 -3.03126e-32)
(3.92832e-05 1.40446e-11 -3.97513e-41)
(3.92833e-05 -8.96903e-12 -1.79045e-29)
(3.92833e-05 1.14164e-11 -3.99313e-41)
(2.34502e-05 1.20414e-08 0)
(2.3678e-05 1.05724e-08 2.787e-28)
(2.37265e-05 9.99525e-10 -1.78842e-29)
(2.37255e-05 9.40278e-10 -1.70004e-29)
(2.37367e-05 -3.00869e-10 0)
(2.37296e-05 2.70561e-10 -1.78105e-29)
(2.37351e-05 -1.92071e-10 -7.78863e-44)
(2.3731e-05 1.39421e-10 1.78581e-29)
(2.3734e-05 -1.06522e-10 1.79373e-29)
(2.37317e-05 7.2622e-11 1.7877e-29)
(2.37333e-05 -5.2279e-11 -1.15695e-31)
(2.37322e-05 4.39246e-11 -1.78899e-29)
(2.37331e-05 -2.97985e-11 -7.95471e-41)
(2.37325e-05 2.29705e-11 8.14941e-44)
(2.37329e-05 -1.7072e-11 -1.79087e-29)
(2.37326e-05 1.28584e-11 3.57899e-29)
(2.37328e-05 -9.93906e-12 -4.52042e-33)
(2.37327e-05 8.36088e-12 -1.79111e-29)
(2.37328e-05 -5.88461e-12 1.78778e-29)
(2.37328e-05 6.36673e-12 -2.43605e-32)
(7.84149e-06 3.0836e-09 -6.97938e-30)
(7.93692e-06 2.51324e-09 8.00557e-29)
(7.95476e-06 1.64565e-10 3.03533e-29)
(7.9542e-06 2.52197e-10 -1.71586e-29)
(7.95831e-06 -1.0202e-10 -1.25107e-29)
(7.95563e-06 8.49902e-11 -1.6787e-31)
(7.95768e-06 -6.12765e-11 8.23183e-32)
(7.95616e-06 4.46416e-11 -5.33916e-32)
(7.95727e-06 -3.37581e-11 1.08003e-43)
(7.95642e-06 2.33986e-11 1.241e-29)
(7.95703e-06 -1.68187e-11 0)
(7.95661e-06 1.366e-11 0)
(7.95694e-06 -9.63723e-12 1.19698e-32)
(7.9567e-06 7.35905e-12 0)
(7.95688e-06 -5.4979e-12 -1.24248e-29)
(7.95675e-06 4.11707e-12 1.24258e-29)
(7.95684e-06 -3.24121e-12 -1.24302e-29)
(7.95678e-06 2.65408e-12 -1.24233e-29)
(7.95682e-06 -2.03425e-12 2.48582e-29)
(7.95681e-06 1.97386e-12 0)
)
;

boundaryField
{
    top
    {
        type            fixedValue;
        value           uniform (0 0 0);
    }
    bottom
    {
        type            symmetryPlane;
    }
    inlet
    {
        type            pressureInletVelocity;
        value           nonuniform List<vector> 
20
(
(0.000197671 0 0)
(0.000196465 0 0)
(0.000194055 0 0)
(0.000190458 0 0)
(0.000185695 0 0)
(0.000179794 0 0)
(0.000172789 0 0)
(0.000164723 0 0)
(0.000155643 0 0)
(0.000145602 0 0)
(0.000134661 0 0)
(0.000122883 0 0)
(0.000110339 0 0)
(9.7103e-05 0 0)
(8.32547e-05 0 0)
(6.88765e-05 0 0)
(5.40546e-05 0 0)
(3.8878e-05 0 0)
(2.34386e-05 0 0)
(7.83344e-06 0 0)
)
;
    }
    outlet
    {
        type            inletOutlet;
        inletValue      uniform (1 0 0);
        value           nonuniform List<vector> 
20
(
(0.000197054 8.59334e-13 -2.10944e-29)
(0.000195865 2.76352e-12 -1.79832e-29)
(0.000193492 5.5112e-12 -5.13013e-33)
(0.000189949 8.33369e-12 3.59647e-29)
(0.000185257 1.13248e-11 6.64531e-33)
(0.00017944 1.40842e-11 -1.79775e-29)
(0.000172531 1.69261e-11 -1.70845e-32)
(0.000164568 1.93106e-11 3.59551e-29)
(0.000155597 2.15603e-11 3.59807e-29)
(0.000145666 2.32035e-11 7.98616e-41)
(0.000134832 2.44043e-11 3.5985e-29)
(0.000123153 2.4957e-11 -1.79639e-29)
(0.000110696 2.4725e-11 -7.98619e-41)
(9.75295e-05 2.3885e-11 -1.79834e-29)
(8.37265e-05 2.20324e-11 1.79834e-29)
(6.9364e-05 1.94971e-11 -1.79834e-29)
(5.4522e-05 1.59098e-11 -3.99313e-41)
(3.92833e-05 1.14164e-11 -3.99313e-41)
(2.37328e-05 6.36673e-12 -2.43605e-32)
(7.95681e-06 1.97386e-12 0)
)
;
    }
    frontAndBack
    {
        type            empty;
    }
}


// ************************************************************************* //
