/*--------------------------------*- C++ -*----------------------------------*\
| =========                 |                                                 |
| \\      /  F ield         | OpenFOAM: The Open Source CFD Toolbox           |
|  \\    /   O peration     | Version:  5.0                                   |
|   \\  /    A nd           | Web:      www.OpenFOAM.org                      |
|    \\/     M anipulation  |                                                 |
\*---------------------------------------------------------------------------*/
FoamFile
{
    version     2.0;
    format      ascii;
    class       surfaceScalarField;
    location    "1.3";
    object      phi;
}
// * * * * * * * * * * * * * * * * * * * * * * * * * * * * * * * * * * * * * //

dimensions      [0 3 -1 0 0 0 0];

internalField   nonuniform List<scalar> 
85
(
0.000100749
-3.32555e-20
0.000100749
3.41456e-20
0.000100749
3.17768e-20
0.000100749
-2.04067e-20
-3.11076e-21
0.000100749
1.55398e-19
0.000100749
9.40823e-20
0.000100749
1.94654e-19
0.000100749
-6.76389e-20
3.02342e-20
0.000100749
1.65429e-19
0.000100749
1.94985e-19
0.000100749
2.50468e-19
0.000100749
5.72296e-20
2.02987e-19
0.000100749
2.18033e-19
0.000100749
3.1978e-19
0.000100749
1.89525e-19
0.000100749
1.96979e-19
2.76783e-19
0.000100749
1.28602e-19
0.000100749
3.59807e-19
0.000100749
3.86372e-19
0.000100749
1.23957e-19
2.88842e-19
0.000100749
1.42996e-19
0.000100749
5.11724e-19
0.000100749
4.12712e-19
0.000100749
2.3024e-19
2.85204e-19
0.000100749
1.31836e-19
0.000100749
5.71412e-19
0.000100749
2.6674e-19
0.000100749
2.73069e-19
4.33101e-19
0.000100749
1.69457e-19
0.000100749
4.43365e-19
0.000100749
3.76908e-19
0.000100749
2.53505e-19
4.67159e-19
0.000100749
2.63597e-19
0.000100749
5.38958e-19
0.000100749
6.60298e-19
0.000100749
3.3366e-19
5.04706e-19
0.000100749
0.000100749
0.000100749
0.000100749
)
;

boundaryField
{
    top
    {
        type            calculated;
        value           nonuniform List<scalar> 5(2.4495e-19 4.31236e-19 5.34177e-19 2.4675e-19 4.08318e-19);
    }
    bottom
    {
        type            symmetryPlane;
        value           uniform 0;
    }
    inlet
    {
        type            calculated;
        value           nonuniform List<scalar> 10(-0.000100749 -0.000100749 -0.000100749 -0.000100749 -0.000100749 -0.000100749 -0.000100749 -0.000100749 -0.000100749 -0.000100749);
    }
    outlet
    {
        type            calculated;
        value           nonuniform 0();
    }
    frontAndBack
    {
        type            empty;
        value           nonuniform 0();
    }
    procBoundary0to1
    {
        type            processor;
        value           nonuniform List<scalar> 10(0.000100749 0.000100749 0.000100749 0.000100749 0.000100749 0.000100749 0.000100749 0.000100749 0.000100749 0.000100749);
    }
}


// ************************************************************************* //
