/*--------------------------------*- C++ -*----------------------------------*\
| =========                 |                                                 |
| \\      /  F ield         | OpenFOAM: The Open Source CFD Toolbox           |
|  \\    /   O peration     | Version:  5.0                                   |
|   \\  /    A nd           | Web:      www.OpenFOAM.org                      |
|    \\/     M anipulation  |                                                 |
\*---------------------------------------------------------------------------*/
FoamFile
{
    version     2.0;
    format      ascii;
    class       volVectorField;
    location    "1.3";
    object      U;
}
// * * * * * * * * * * * * * * * * * * * * * * * * * * * * * * * * * * * * * //

dimensions      [0 1 -1 0 0 0 0];

internalField   nonuniform List<vector> 
25
(
(1 -7.23899e-10 2.86711e-29)
(1 1.44675e-09 -3.23241e-23)
(1 -3.40156e-09 -3.23241e-23)
(1 -2.25992e-09 -3.2324e-23)
(1 -1.16962e-09 -5.61363e-30)
(0.92 5.41502e-10 -7.11298e-37)
(0.92 1.51977e-09 2.79794e-23)
(0.92 -7.01672e-09 -1.25675e-28)
(0.92 -1.22453e-08 -2.79794e-23)
(0.92 -4.4337e-09 -2.79793e-23)
(0.76 5.28e-09 -2.73702e-23)
(0.76 -1.93591e-09 -8.69356e-29)
(0.76 -3.96025e-09 2.79794e-23)
(0.76 -2.58904e-08 -5.59587e-23)
(0.76 -7.33548e-09 -5.59586e-23)
(0.52 8.27966e-09 5.48441e-23)
(0.52 -4.59812e-09 2.79792e-23)
(0.52 1.43958e-10 -5.59588e-23)
(0.52 -3.20935e-08 -2.79784e-23)
(0.52 -7.51035e-09 5.59585e-23)
(0.2 3.4082e-09 3.93808e-23)
(0.2 -2.02628e-09 1.99393e-23)
(0.2 8.19231e-10 -5.9818e-23)
(0.2 -1.21378e-08 -1.99392e-23)
(0.2 -2.57781e-09 3.98786e-23)
)
;

boundaryField
{
    top
    {
        type            fixedValue;
        value           uniform (0 0 0);
    }
    bottom
    {
        type            symmetryPlane;
    }
    inlet
    {
        type            pressureInletVelocity;
        value           nonuniform List<vector> 5((1 -0 -0) (0.92 -0 -0) (0.76 -0 -0) (0.52 -0 -0) (0.2 -0 -0));
    }
    outlet
    {
        type            inletOutlet;
        inletValue      nonuniform 0();
        value           nonuniform 0();
    }
    frontAndBack
    {
        type            empty;
    }
    procBoundary0to1
    {
        type            processor;
        value           nonuniform List<vector> 5((1 2.11683e-09 6.4648e-23) (0.92 1.12039e-08 -2.79794e-23) (0.76 2.33445e-08 2.79797e-23) (0.52 2.9143e-08 5.59592e-23) (0.2 1.10407e-08 3.98785e-23));
    }
}


// ************************************************************************* //
