/*--------------------------------*- C++ -*----------------------------------*\
| =========                 |                                                 |
| \\      /  F ield         | OpenFOAM: The Open Source CFD Toolbox           |
|  \\    /   O peration     | Version:  5.0                                   |
|   \\  /    A nd           | Web:      www.OpenFOAM.org                      |
|    \\/     M anipulation  |                                                 |
\*---------------------------------------------------------------------------*/
FoamFile
{
    version     2.0;
    format      ascii;
    class       volVectorField;
    location    "1.3";
    object      U;
}
// * * * * * * * * * * * * * * * * * * * * * * * * * * * * * * * * * * * * * //

dimensions      [0 1 -1 0 0 0 0];

internalField   nonuniform List<vector> 
50
(
(1.00749 -1.89776e-17 1.42527e-36)
(1.00749 -4.9734e-18 1.14262e-37)
(1.00749 -5.44724e-17 -1.3618e-36)
(1.00749 2.9988e-17 6.68326e-38)
(1.00749 -4.8302e-17 -1.43726e-36)
(1.00749 9.73785e-17 1.52727e-50)
(1.00749 6.73427e-17 -9.62965e-38)
(1.00749 7.93385e-17 9.68247e-52)
(1.00749 -2.81879e-17 5.63244e-38)
(1.00749 -3.50101e-17 3.63383e-39)
(1.00749 1.31019e-16 6.6151e-38)
(1.00749 1.2024e-16 2.61209e-50)
(1.00749 1.73984e-16 -6.3592e-38)
(1.00749 -1.80271e-18 1.16283e-37)
(1.00749 9.65673e-17 -4.76055e-51)
(1.00749 1.80868e-16 3.47834e-36)
(1.00749 2.65645e-16 -9.08458e-38)
(1.00749 1.91101e-16 1.2355e-37)
(1.00749 1.35489e-16 -1.08433e-35)
(1.00749 2.14499e-16 3.63383e-36)
(1.00749 1.52939e-16 -1.09522e-35)
(1.00749 3.38472e-16 3.54298e-36)
(1.00749 2.97595e-16 1.74424e-37)
(1.00749 1.80534e-16 1.0956e-35)
(1.00749 2.92873e-16 3.6302e-36)
(1.00749 1.40778e-16 1.25086e-37)
(1.00749 4.45584e-16 8.5395e-38)
(1.00749 4.07362e-16 -1.92593e-36)
(1.00749 1.76031e-16 3.63383e-36)
(1.00749 2.94015e-16 3.63383e-39)
(1.00749 1.43927e-16 6.17584e-51)
(1.00749 5.52964e-16 3.63383e-36)
(1.00749 3.71859e-16 3.63383e-36)
(1.00749 2.28873e-16 -7.26766e-36)
(1.00749 3.60235e-16 -1.81692e-36)
(1.00749 1.5067e-16 -5.35703e-36)
(1.00749 4.989e-16 1.98044e-36)
(1.00749 3.47881e-16 5.45075e-38)
(1.00749 2.72494e-16 7.26766e-36)
(1.00749 4.18993e-16 -5.45075e-39)
(1.00749 2.40632e-16 1.80412e-36)
(1.00749 4.71633e-16 -1.73334e-36)
(1.00749 5.17418e-16 -5.26905e-38)
(1.00749 2.95899e-16 3.63383e-36)
(1.00749 4.65296e-16 -3.63383e-36)
(1.00749 2.4495e-16 9.95455e-38)
(1.00749 4.84141e-16 -2.13801e-36)
(1.00749 5.91803e-16 -9.97357e-38)
(1.00749 2.9574e-16 -2.21023e-36)
(1.00749 4.6122e-16 -2.29277e-36)
)
;

boundaryField
{
    top
    {
        type            zeroGradient;
    }
    bottom
    {
        type            symmetryPlane;
    }
    inlet
    {
        type            pressureInletVelocity;
        value           nonuniform List<vector> 10((1.00749 -0 -0) (1.00749 -0 -0) (1.00749 -0 -0) (1.00749 -0 -0) (1.00749 -0 -0) (1.00749 -0 -0) (1.00749 -0 -0) (1.00749 -0 -0) (1.00749 -0 -0) (1.00749 -0 -0));
    }
    outlet
    {
        type            inletOutlet;
        inletValue      nonuniform 0();
        value           nonuniform 0();
    }
    frontAndBack
    {
        type            empty;
    }
    procBoundary0to1
    {
        type            processor;
        value           nonuniform List<vector> 10((1.00749 -4.16126e-17 -5.60532e-38) (1.00749 -2.00076e-17 -1.7933e-36) (1.00749 -4.23788e-17 3.61021e-36) (1.00749 -1.60847e-17 3.57205e-36) (1.00749 -3.823e-17 -6.90428e-38) (1.00749 -4.60246e-17 -1.24309e-49) (1.00749 4.21512e-17 5.49072e-36) (1.00749 -8.062e-17 1.09015e-35) (1.00749 -2.03106e-16 -3.63383e-36) (1.00749 -2.76873e-16 -2.38907e-36));
    }
}


// ************************************************************************* //
