/*--------------------------------*- C++ -*----------------------------------*\
| =========                 |                                                 |
| \\      /  F ield         | OpenFOAM: The Open Source CFD Toolbox           |
|  \\    /   O peration     | Version:  5.0                                   |
|   \\  /    A nd           | Web:      www.OpenFOAM.org                      |
|    \\/     M anipulation  |                                                 |
\*---------------------------------------------------------------------------*/
FoamFile
{
    version     2.0;
    format      ascii;
    class       surfaceScalarField;
    location    "139";
    object      phi;
}
// * * * * * * * * * * * * * * * * * * * * * * * * * * * * * * * * * * * * * //

dimensions      [0 3 -1 0 0 0 0];

internalField   nonuniform List<scalar> 
3052
(
-3.52368e-21
-2.20994e-20
-2.46991e-20
1.23148e-20
1.89957e-19
-2.26354e-19
3.57737e-19
-1.82744e-19
4.92282e-19
-1.44163e-19
6.9088e-19
-2.0794e-19
9.01187e-19
-2.1795e-19
1.10612e-18
-2.11976e-19
1.31826e-18
-2.2019e-19
1.53661e-18
-2.26128e-19
1.75257e-18
-2.2327e-19
1.96374e-18
-2.18067e-19
2.16838e-18
-2.11232e-19
2.36406e-18
-2.01911e-19
2.5481e-18
-1.90606e-19
2.71919e-18
-1.77475e-19
2.87471e-18
-1.61949e-19
3.01479e-18
-1.46068e-19
3.13695e-18
-1.28253e-19
3.24105e-18
-1.09558e-19
3.32463e-18
-8.88369e-20
3.39123e-18
-7.07879e-20
3.43864e-18
-5.11205e-20
3.46803e-18
-3.17704e-20
3.47707e-18
-1.11976e-20
3.46921e-18
6.53366e-21
3.44041e-18
2.74296e-20
3.39506e-18
4.49061e-20
3.33157e-18
6.29209e-20
3.2561e-18
7.57926e-20
3.16537e-18
9.19039e-20
3.06448e-18
1.0434e-19
2.95023e-18
1.19084e-19
2.82801e-18
1.28671e-19
2.69508e-18
1.39753e-19
2.55685e-18
1.45931e-19
2.40959e-18
1.54671e-19
2.2589e-18
1.58575e-19
2.1024e-18
1.64066e-19
1.94355e-18
1.66189e-19
1.7811e-18
1.68545e-19
1.61966e-18
1.67269e-19
1.45726e-18
1.67553e-19
1.29751e-18
1.65092e-19
1.13991e-18
1.62922e-19
9.87418e-19
1.58186e-19
8.39869e-19
1.53434e-19
6.99439e-19
1.46429e-19
5.66127e-19
1.38971e-19
4.43499e-19
1.28836e-19
3.28809e-19
1.19382e-19
2.28212e-19
1.04686e-19
1.49508e-19
8.70181e-20
6.14826e-20
8.7325e-20
2.05741e-20
4.1935e-20
2.05444e-20
1.16423e-19
-1.44464e-19
1.93292e-19
-8.42856e-20
1.80115e-19
-2.65851e-19
2.76101e-19
-3.03259e-19
4.6659e-19
-3.64765e-19
6.30199e-19
-3.93474e-19
8.03102e-19
-4.08178e-19
9.96841e-19
-4.24777e-19
1.19389e-18
-4.3584e-19
1.3891e-18
-4.39999e-19
1.58534e-18
-4.36767e-19
1.77945e-18
-4.28094e-19
1.96737e-18
-4.14266e-19
2.14597e-18
-3.96664e-19
2.31464e-18
-3.74619e-19
2.47069e-18
-3.49126e-19
2.61412e-18
-3.19825e-19
2.7419e-18
-2.8842e-19
2.85456e-18
-2.53647e-19
2.95012e-18
-2.17559e-19
3.03034e-18
-1.79054e-19
3.09216e-18
-1.41899e-19
3.13809e-18
-1.03144e-19
3.16575e-18
-6.51634e-20
3.17695e-18
-2.57341e-20
3.16828e-18
1.17582e-20
3.14422e-18
5.02632e-20
3.10284e-18
8.4622e-20
3.04843e-18
1.18006e-19
2.97818e-18
1.48168e-19
2.89724e-18
1.79767e-19
2.80417e-18
2.07246e-19
2.70341e-18
2.34198e-19
2.59167e-18
2.56154e-19
2.47269e-18
2.76862e-19
2.34413e-18
2.9197e-19
2.21152e-18
3.06297e-19
2.07222e-18
3.15834e-19
1.93011e-18
3.23931e-19
1.78375e-18
3.27693e-19
1.63621e-18
3.30705e-19
1.48549e-18
3.30074e-19
1.33648e-18
3.28987e-19
1.18858e-18
3.2495e-19
1.04431e-18
3.20106e-19
9.03338e-19
3.12404e-19
7.67827e-19
3.02712e-19
6.38139e-19
2.8955e-19
5.17131e-19
2.75054e-19
4.02302e-19
2.55186e-19
2.99229e-19
2.35989e-19
2.07832e-19
2.12222e-19
1.1986e-19
1.73049e-19
7.51316e-20
1.4423e-19
2.15524e-20
8.99313e-20
4.1782e-20
-3.85954e-20
-1.08319e-19
6.63827e-20
-2.23305e-19
1.53381e-19
-3.64708e-19
2.70611e-19
-4.43288e-19
3.95985e-19
-5.00427e-19
5.47134e-19
-5.49126e-19
7.10268e-19
-5.75218e-19
8.82992e-19
-6.00436e-19
1.06094e-18
-6.17171e-19
1.24069e-18
-6.21502e-19
1.41943e-18
-6.16492e-19
1.59436e-18
-6.04471e-19
1.76409e-18
-5.86435e-19
1.9269e-18
-5.61158e-19
2.08004e-18
-5.2986e-19
2.22251e-18
-4.92964e-19
2.35302e-18
-4.51644e-19
2.47023e-18
-4.05776e-19
2.57317e-18
-3.57009e-19
2.66165e-18
-3.0549e-19
2.73513e-18
-2.5257e-19
2.79278e-18
-1.98526e-19
2.83412e-18
-1.44418e-19
2.85956e-18
-8.95428e-20
2.86927e-18
-3.5126e-20
2.86354e-18
1.87711e-20
2.84327e-18
7.08224e-20
2.80862e-18
1.20638e-19
2.75998e-18
1.673e-19
2.69854e-18
2.11331e-19
2.62631e-18
2.53282e-19
2.54338e-18
2.92726e-19
2.45063e-18
3.28419e-19
2.34905e-18
3.59665e-19
2.24025e-18
3.86565e-19
2.12462e-18
4.09587e-19
2.00333e-18
4.2855e-19
1.87716e-18
4.43419e-19
1.74729e-18
4.5441e-19
1.61415e-18
4.61756e-19
1.47915e-18
4.65161e-19
1.34357e-18
4.65942e-19
1.20827e-18
4.64086e-19
1.07386e-18
4.59598e-19
9.42062e-19
4.51865e-19
8.13793e-19
4.41146e-19
6.90153e-19
4.27125e-19
5.72099e-19
4.09385e-19
4.6095e-19
3.87598e-19
3.58887e-19
3.63172e-19
2.64364e-19
3.30231e-19
1.79964e-19
2.91918e-19
1.14293e-19
2.54006e-19
4.82445e-20
1.9487e-19
8.92852e-21
1.29945e-19
5.06808e-20
-2.30466e-20
-8.88148e-20
6.44401e-20
-3.14683e-19
1.19879e-19
-4.26327e-19
2.16794e-19
-5.41156e-19
3.4228e-19
-6.22787e-19
4.73113e-19
-6.73262e-19
6.18728e-19
-7.13898e-19
7.74209e-19
-7.4885e-19
9.33807e-19
-7.67466e-19
1.09431e-18
-7.72111e-19
1.25454e-18
-7.6812e-19
1.41215e-18
-7.54478e-19
1.56461e-18
-7.31223e-19
1.71043e-18
-6.99478e-19
1.8483e-18
-6.59967e-19
1.97686e-18
-6.13571e-19
2.09474e-18
-5.61193e-19
2.20088e-18
-5.03866e-19
2.29457e-18
-4.42597e-19
2.37489e-18
-3.78412e-19
2.44152e-18
-3.12141e-19
2.49344e-18
-2.44886e-19
2.53094e-18
-1.7703e-19
2.554e-18
-1.08868e-19
2.56341e-18
-4.10579e-20
2.55905e-18
2.55991e-20
2.54219e-18
9.01594e-20
2.51244e-18
1.51591e-19
2.47099e-18
2.09458e-19
2.41728e-18
2.64078e-19
2.35299e-18
3.14989e-19
2.27804e-18
3.61739e-19
2.19461e-18
4.04022e-19
2.10251e-18
4.42003e-19
2.00391e-18
4.75314e-19
1.89871e-18
5.04143e-19
1.78896e-18
5.2795e-19
1.67464e-18
5.472e-19
1.5574e-18
5.61618e-19
1.43777e-18
5.71635e-19
1.31704e-18
5.77609e-19
1.19537e-18
5.79746e-19
1.07419e-18
5.77735e-19
9.53967e-19
5.71959e-19
8.35795e-19
5.62351e-19
7.20415e-19
5.48931e-19
6.09204e-19
5.31045e-19
5.03577e-19
5.09197e-19
4.05216e-19
4.82999e-19
3.12333e-19
4.48799e-19
2.28666e-19
4.10768e-19
1.5602e-19
3.69691e-19
8.60175e-20
3.03861e-19
4.89119e-20
2.41549e-19
1.78142e-20
1.55563e-19
6.82607e-20
3.51271e-20
-1.24644e-19
4.72341e-20
-3.17801e-19
1.11834e-19
-4.86176e-19
1.90038e-19
-6.12981e-19
2.91206e-19
-7.15305e-19
4.05533e-19
-7.82842e-19
5.32951e-19
-8.37652e-19
6.68554e-19
-8.78572e-19
8.08698e-19
-9.00267e-19
9.51052e-19
-9.07859e-19
1.09236e-18
-9.03676e-19
1.2311e-18
-8.87724e-19
1.36599e-18
-8.60457e-19
1.4953e-18
-8.23015e-19
1.61761e-18
-7.76256e-19
1.73188e-18
-7.21688e-19
1.83666e-18
-6.5998e-19
1.93115e-18
-5.92622e-19
2.01451e-18
-5.20562e-19
2.08634e-18
-4.45127e-19
2.14568e-18
-3.67204e-19
2.19225e-18
-2.87861e-19
2.22561e-18
-2.07559e-19
2.24632e-18
-1.27274e-19
2.2545e-18
-4.74806e-20
2.25112e-18
3.06377e-20
2.23618e-18
1.06201e-19
2.2105e-18
1.78229e-19
2.17402e-18
2.46263e-19
2.1275e-18
3.09836e-19
2.07086e-18
3.68702e-19
2.00495e-18
4.22942e-19
1.93013e-18
4.72222e-19
1.84841e-18
5.16454e-19
1.76038e-18
5.55396e-19
1.66733e-18
5.89173e-19
1.56952e-18
6.17515e-19
1.46829e-18
6.40511e-19
1.364e-18
6.58476e-19
1.25797e-18
6.71341e-19
1.15106e-18
6.79137e-19
1.04419e-18
6.81937e-19
9.37249e-19
6.80192e-19
8.31261e-19
6.73632e-19
7.26835e-19
6.62412e-19
6.25167e-19
6.46411e-19
5.27389e-19
6.2561e-19
4.34816e-19
5.99189e-19
3.4787e-19
5.66982e-19
2.68749e-19
5.30159e-19
1.95786e-19
4.82597e-19
1.29953e-19
4.23537e-19
8.1207e-20
3.6647e-19
2.88378e-20
2.81044e-19
-4.92952e-22
1.86122e-19
6.79179e-20
1.54198e-20
-1.35428e-19
4.5087e-20
-3.37924e-19
9.53367e-20
-5.26524e-19
1.67102e-19
-6.76389e-19
2.48817e-19
-7.95214e-19
3.44906e-19
-8.80136e-19
4.52853e-19
-9.4621e-19
5.67843e-19
-9.92686e-19
6.87373e-19
-1.01891e-18
8.09613e-19
-1.02951e-18
9.31884e-19
-1.0256e-18
1.05252e-18
-1.00784e-18
1.16988e-18
-9.77028e-19
1.28246e-18
-9.34457e-19
1.38921e-18
-8.81674e-19
1.48866e-18
-8.19912e-19
1.57991e-18
-7.50245e-19
1.66203e-18
-6.74009e-19
1.7346e-18
-5.92433e-19
1.79674e-18
-5.06802e-19
1.8483e-18
-4.18284e-19
1.88864e-18
-3.27893e-19
1.91787e-18
-2.36571e-19
1.93583e-18
-1.45279e-19
1.94318e-18
-5.48067e-20
1.93997e-18
3.37642e-20
1.92694e-18
1.19463e-19
1.90417e-18
2.01438e-19
1.87217e-18
2.78852e-19
1.83107e-18
3.5122e-19
1.78153e-18
4.18203e-19
1.72395e-18
4.79611e-19
1.6595e-18
5.35484e-19
1.58871e-18
5.85599e-19
1.51245e-18
6.29849e-19
1.43139e-18
6.68124e-19
1.34652e-18
7.00518e-19
1.25833e-18
7.26935e-19
1.16793e-18
7.47581e-19
1.07597e-18
7.62554e-19
9.83298e-19
7.71826e-19
8.90222e-19
7.75504e-19
7.97621e-19
7.73694e-19
7.05925e-19
7.66294e-19
6.16065e-19
7.53439e-19
5.28877e-19
7.35063e-19
4.45362e-19
7.1062e-19
3.66358e-19
6.8039e-19
2.93599e-19
6.44251e-19
2.26131e-19
5.98094e-19
1.65025e-19
5.44747e-19
1.12355e-19
4.86514e-19
6.06745e-20
4.04462e-19
3.3352e-20
3.14901e-19
1.28794e-20
2.06022e-19
8.07451e-20
3.67662e-21
-1.36344e-19
4.04376e-20
-3.66661e-19
8.47943e-20
-5.64554e-19
1.41263e-19
-7.30762e-19
2.06488e-19
-8.6127e-19
2.84888e-19
-9.60374e-19
3.7381e-19
-1.03614e-18
4.69437e-19
-1.08893e-18
5.69871e-19
-1.12005e-18
6.72671e-19
-1.13322e-18
7.75871e-19
-1.12973e-18
8.77921e-19
-1.11056e-18
9.77416e-19
-1.07689e-18
1.0732e-18
-1.03034e-18
1.16397e-18
-9.72507e-19
1.24856e-18
-9.04594e-19
1.32608e-18
-8.28018e-19
1.39587e-18
-7.4409e-19
1.45728e-18
-6.54313e-19
1.50997e-18
-5.59842e-19
1.55353e-18
-4.6211e-19
1.58771e-18
-3.62262e-19
1.61234e-18
-2.61483e-19
1.62748e-18
-1.60659e-19
1.63332e-18
-6.1007e-20
1.6303e-18
3.66183e-20
1.61872e-18
1.31002e-19
1.59906e-18
2.21342e-19
1.57144e-18
3.06841e-19
1.53629e-18
3.86979e-19
1.4938e-18
4.61136e-19
1.44472e-18
5.29228e-19
1.38954e-18
5.90996e-19
1.329e-18
6.46287e-19
1.26369e-18
6.95029e-19
1.19452e-18
7.3728e-19
1.12207e-18
7.72916e-19
1.04705e-18
8.02034e-19
9.70154e-19
8.24668e-19
8.92182e-19
8.41063e-19
8.13659e-19
8.51184e-19
7.35196e-19
8.55168e-19
6.5723e-19
8.52904e-19
5.80332e-19
8.44522e-19
5.05183e-19
8.30005e-19
4.32554e-19
8.09274e-19
3.63215e-19
7.82118e-19
2.98259e-19
7.48072e-19
2.37877e-19
7.06218e-19
1.83059e-19
6.57524e-19
1.33962e-19
5.97911e-19
8.93301e-20
5.2333e-19
5.59744e-20
4.44487e-19
2.07515e-20
3.4345e-19
2.89076e-21
2.23098e-19
8.35782e-20
8.61536e-21
-1.43319e-19
3.21104e-20
-3.88107e-19
6.63973e-20
-5.97467e-19
1.09411e-19
-7.73393e-19
1.61979e-19
-9.14565e-19
2.25878e-19
-1.02463e-18
2.97574e-19
-1.10787e-18
3.74674e-19
-1.16634e-18
4.56315e-19
-1.202e-18
5.40149e-19
-1.21751e-18
6.24574e-19
-1.2145e-18
7.08093e-19
-1.1943e-18
7.89744e-19
-1.15854e-18
8.684e-19
-1.10885e-18
9.42939e-19
-1.04683e-18
1.01246e-18
-9.73902e-19
1.07628e-18
-8.91575e-19
1.13367e-18
-8.01354e-19
1.18416e-18
-7.04664e-19
1.22739e-18
-6.02911e-19
1.26302e-18
-4.97599e-19
1.29083e-18
-3.89938e-19
1.31071e-18
-2.81219e-19
1.32267e-18
-1.72642e-19
1.32695e-18
-6.53714e-20
1.32386e-18
3.95316e-20
1.31373e-18
1.41063e-19
1.29677e-18
2.38262e-19
1.2734e-18
3.3041e-19
1.24375e-18
4.16805e-19
1.20824e-18
4.96976e-19
1.16715e-18
5.70464e-19
1.12107e-18
6.37083e-19
1.07054e-18
6.96612e-19
1.01631e-18
7.49082e-19
9.58931e-19
7.94374e-19
8.99066e-19
8.32509e-19
8.37214e-19
8.63568e-19
7.73973e-19
8.87657e-19
7.09957e-19
9.04885e-19
6.45761e-19
9.15362e-19
5.81776e-19
9.19117e-19
5.18415e-19
9.16245e-19
4.56117e-19
9.06756e-19
3.95463e-19
8.90654e-19
3.37226e-19
8.67795e-19
2.82214e-19
8.3785e-19
2.30847e-19
8.00577e-19
1.83851e-19
7.55657e-19
1.41608e-19
7.00478e-19
1.03446e-19
6.35099e-19
6.97698e-20
5.61292e-19
3.72729e-20
4.67446e-19
1.93708e-20
3.5998e-19
6.55069e-21
2.3402e-19
9.00238e-20
8.67433e-21
-1.52155e-19
2.30249e-20
-4.01231e-19
4.80496e-20
-6.21513e-19
8.04884e-20
-8.05499e-19
1.21743e-19
-9.55493e-19
1.70669e-19
-1.07347e-18
2.25302e-19
-1.16284e-18
2.84663e-19
-1.22596e-18
3.47468e-19
-1.26526e-18
4.12354e-19
-1.28287e-18
4.78116e-19
-1.28064e-18
5.43546e-19
-1.25989e-18
6.07627e-19
-1.22266e-18
6.69303e-19
-1.17058e-18
7.2782e-19
-1.10533e-18
7.82452e-19
-1.02844e-18
8.32508e-19
-9.4155e-19
8.77498e-19
-8.46237e-19
9.16987e-19
-7.44073e-19
9.50676e-19
-6.36565e-19
9.7826e-19
-5.25151e-19
9.99602e-19
-4.1128e-19
1.01455e-18
-2.96322e-19
1.02323e-18
-1.81579e-19
1.02573e-18
-6.82287e-20
1.02238e-18
4.25851e-20
1.0134e-18
1.49841e-19
9.99112e-19
2.52618e-19
9.79656e-19
3.50005e-19
9.55343e-19
4.41382e-19
9.26416e-19
5.26076e-19
8.93216e-19
6.03764e-19
8.56103e-19
6.74117e-19
8.15676e-19
7.3697e-19
7.72433e-19
7.92187e-19
7.26875e-19
8.39796e-19
6.79416e-19
8.79775e-19
6.30628e-19
9.12211e-19
5.80937e-19
9.37214e-19
5.30864e-19
9.54918e-19
4.80784e-19
9.65376e-19
4.31137e-19
9.68755e-19
3.82211e-19
9.65142e-19
3.34397e-19
9.54514e-19
2.88216e-19
9.36855e-19
2.44317e-19
9.12103e-19
2.033e-19
8.79904e-19
1.65745e-19
8.39805e-19
1.31517e-19
7.90862e-19
1.00945e-19
7.32893e-19
7.43935e-20
6.64412e-19
4.96268e-20
5.80941e-19
2.95842e-20
4.86436e-19
1.08094e-20
3.75418e-19
-1.4768e-22
2.42501e-19
8.97839e-20
3.51343e-21
-1.54962e-19
1.46249e-20
-4.10853e-19
3.24032e-20
-6.37855e-19
5.59226e-20
-8.27886e-19
8.46948e-20
-9.83857e-19
1.18272e-19
-1.10733e-18
1.56472e-19
-1.20149e-18
1.98531e-19
-1.26865e-18
2.43394e-19
-1.31085e-18
2.90215e-19
-1.33028e-18
3.37836e-19
-1.32871e-18
3.85439e-19
-1.30781e-18
4.32195e-19
-1.26976e-18
4.77332e-19
-1.21601e-18
5.2009e-19
-1.14839e-18
5.59986e-19
-1.06859e-18
5.96462e-19
-9.78256e-19
6.29194e-19
-8.7917e-19
6.57762e-19
-7.72852e-19
6.81945e-19
-6.60969e-19
7.01534e-19
-5.4499e-19
7.16409e-19
-4.2656e-19
7.26476e-19
-3.06886e-19
7.31734e-19
-1.87478e-19
7.32363e-19
-6.95013e-20
7.28629e-19
4.58016e-20
7.20809e-19
1.57475e-19
7.09103e-19
2.6445e-19
6.93636e-19
3.65852e-19
6.74552e-19
4.60872e-19
6.5202e-19
5.48934e-19
6.26358e-19
6.29581e-19
5.98052e-19
7.02572e-19
5.67424e-19
7.67709e-19
5.34858e-19
8.2489e-19
5.00696e-19
8.74043e-19
4.65418e-19
9.15204e-19
4.2936e-19
9.48474e-19
3.92921e-19
9.73954e-19
3.56415e-19
9.91706e-19
3.20235e-19
1.00192e-18
2.84683e-19
1.00472e-18
2.49973e-19
1.00029e-18
2.16424e-19
9.88555e-19
1.84481e-19
9.6949e-19
1.5464e-19
9.42933e-19
1.27484e-19
9.08647e-19
1.03005e-19
8.66109e-19
8.12947e-20
8.14947e-19
6.26049e-20
7.5369e-19
4.61693e-20
6.8049e-19
3.13156e-20
5.97115e-19
1.70503e-20
4.98062e-19
6.83247e-21
3.80292e-19
2.30458e-21
2.4704e-19
9.20666e-20
1.13739e-21
-1.55662e-19
8.45762e-21
-4.16116e-19
1.87785e-20
-6.46355e-19
3.22984e-20
-8.40187e-19
4.85525e-20
-9.99897e-19
6.81452e-20
-1.12719e-18
9.10672e-20
-1.22485e-18
1.16796e-19
-1.29489e-18
1.4468e-19
-1.3392e-18
1.73972e-19
-1.36002e-18
2.04102e-19
-1.35912e-18
2.34515e-19
-1.33851e-18
2.64419e-19
-1.29995e-18
2.93345e-19
-1.24523e-18
3.20803e-19
-1.1761e-18
3.46315e-19
-1.09436e-18
3.69553e-19
-1.00173e-18
3.90195e-19
-9.00062e-19
4.08062e-19
-7.90946e-19
4.22955e-19
-6.76075e-19
4.34712e-19
-5.57076e-19
4.43184e-19
-4.35474e-19
4.48394e-19
-3.12818e-19
4.5042e-19
-1.90364e-19
4.4939e-19
-6.93369e-20
4.45468e-19
4.91976e-20
4.38828e-19
1.64085e-19
4.29523e-19
2.74118e-19
4.17665e-19
3.78159e-19
4.03513e-19
4.75425e-19
3.87218e-19
5.65484e-19
3.69041e-19
6.47958e-19
3.49225e-19
7.22554e-19
3.28046e-19
7.89034e-19
3.05774e-19
8.47249e-19
2.82766e-19
8.97174e-19
2.59305e-19
9.38848e-19
2.35681e-19
9.72368e-19
2.12092e-19
9.97813e-19
1.88809e-19
1.01533e-18
1.66118e-19
1.02499e-18
1.4423e-19
1.02702e-18
1.23325e-19
1.02167e-18
1.03673e-19
1.00878e-18
8.55089e-20
9.88314e-19
6.92197e-20
9.6024e-19
5.51154e-20
9.24259e-19
4.34082e-20
8.79982e-19
3.36181e-20
8.26338e-19
2.56181e-20
7.62811e-19
1.99216e-20
6.89558e-19
1.36664e-20
6.01972e-19
6.39756e-21
4.99342e-19
3.3254e-21
3.85023e-19
5.14998e-22
2.46333e-19
9.24085e-20
-2.44357e-22
-1.54687e-19
2.33149e-21
-4.17051e-19
5.56261e-21
-6.4783e-19
9.54553e-21
-8.4317e-19
1.44129e-20
-1.00445e-18
2.09373e-20
-1.13385e-18
2.93555e-20
-1.23353e-18
3.95007e-20
-1.30528e-18
5.13428e-20
-1.35128e-18
6.4116e-20
-1.37294e-18
7.74179e-20
-1.37263e-18
9.12451e-20
-1.35256e-18
1.04933e-19
-1.31384e-18
1.18214e-19
-1.25871e-18
1.30825e-19
-1.18888e-18
1.42431e-19
-1.10617e-18
1.5285e-19
-1.01241e-18
1.61837e-19
-9.09304e-19
1.69339e-19
-7.98666e-19
1.75181e-19
-6.8215e-19
1.79337e-19
-5.61552e-19
1.81669e-19
-4.38339e-19
1.82299e-19
-3.14031e-19
1.8119e-19
-1.89821e-19
1.7853e-19
-6.69542e-20
1.7435e-19
5.34087e-20
1.68779e-19
1.6985e-19
1.61821e-19
2.81204e-19
1.53628e-19
3.86433e-19
1.44263e-19
4.84798e-19
1.33983e-19
5.758e-19
1.22972e-19
6.59039e-19
1.11383e-19
7.34172e-19
9.93923e-20
8.01036e-19
8.71592e-20
8.59512e-19
7.49471e-20
9.09469e-19
6.29148e-20
9.51025e-19
5.12771e-20
9.84178e-19
4.0217e-20
1.0091e-18
2.97368e-20
1.02604e-18
1.98908e-20
1.03509e-18
1.09905e-20
1.03626e-18
3.41545e-21
1.02966e-18
-2.88408e-21
1.01549e-18
-7.86938e-21
9.93851e-19
-1.12832e-20
9.64524e-19
-1.27945e-20
9.27217e-19
-1.27e-20
8.81264e-19
-1.12451e-20
8.26616e-19
-8.10538e-21
7.62633e-19
-5.40008e-21
6.85728e-19
-2.80507e-21
5.97952e-19
-9.74059e-22
4.99799e-19
-4.31301e-21
3.788e-19
-3.29664e-21
2.45327e-19
8.90717e-20
-1.23503e-21
-1.53205e-19
-3.14503e-21
-4.13314e-19
-6.67737e-21
-6.42727e-19
-1.16358e-20
-8.37193e-19
-1.73105e-20
-9.98407e-19
-2.30116e-20
-1.12822e-18
-2.82049e-20
-1.2285e-18
-3.26341e-20
-1.30103e-18
-3.64116e-20
-1.34767e-18
-3.9613e-20
-1.36999e-18
-4.21344e-20
-1.37038e-18
-4.42158e-20
-1.35079e-18
-4.59339e-20
-1.31245e-18
-4.75021e-20
-1.25743e-18
-4.90781e-20
-1.18764e-18
-5.07886e-20
-1.10487e-18
-5.26965e-20
-1.01094e-18
-5.48484e-20
-9.07576e-19
-5.73053e-20
-7.9659e-19
-6.01015e-20
-6.7974e-19
-6.33224e-20
-5.58692e-19
-6.68403e-20
-4.3496e-19
-7.06344e-20
-3.1006e-19
-7.45134e-20
-1.85352e-19
-7.85215e-20
-6.21515e-20
-8.27571e-20
5.82262e-20
-8.73721e-20
1.74491e-19
-9.22443e-20
2.8558e-19
-9.7133e-20
3.90576e-19
-1.0178e-19
4.88802e-19
-1.06056e-19
5.79694e-19
-1.10012e-19
6.62784e-19
-1.13629e-19
7.37707e-19
-1.16809e-19
8.04201e-19
-1.19381e-19
8.62149e-19
-1.21245e-19
9.11486e-19
-1.22322e-19
9.52319e-19
-1.22585e-19
9.84691e-19
-1.21967e-19
1.00875e-18
-1.20273e-19
1.02463e-18
-1.17329e-19
1.03251e-18
-1.13263e-19
1.03266e-18
-1.08241e-19
1.02512e-18
-1.02164e-19
1.00996e-18
-9.48644e-20
9.87195e-19
-8.61575e-20
9.56748e-19
-7.60509e-20
9.18375e-19
-6.46158e-20
8.71874e-19
-5.23785e-20
8.16127e-19
-4.02744e-20
7.50246e-19
-2.73234e-20
6.76401e-19
-1.75791e-20
5.89246e-19
-1.3247e-20
4.84642e-19
-2.9598e-21
3.72714e-19
5.2019e-23
2.37251e-19
8.88517e-20
-2.68732e-21
-1.4983e-19
-8.62846e-21
-4.06133e-19
-1.81342e-20
-6.31785e-19
-3.09948e-20
-8.231e-19
-4.66541e-20
-9.82398e-19
-6.38984e-20
-1.11103e-18
-8.20152e-20
-1.21059e-18
-1.00421e-19
-1.28285e-18
-1.18857e-19
-1.3295e-18
-1.36574e-19
-1.35256e-18
-1.53811e-19
-1.35352e-18
-1.70973e-19
-1.33404e-18
-1.87481e-19
-1.29638e-18
-2.03271e-19
-1.2421e-18
-2.18377e-19
-1.17306e-18
-2.32718e-19
-1.09107e-18
-2.46306e-19
-9.97903e-19
-2.59078e-19
-8.95331e-19
-2.71047e-19
-7.85157e-19
-2.82111e-19
-6.69089e-19
-2.92235e-19
-5.48703e-19
-3.01227e-19
-4.25679e-19
-3.08936e-19
-3.01563e-19
-3.15255e-19
-1.7779e-19
-3.20505e-19
-5.57785e-20
-3.24857e-19
6.31044e-20
-3.28484e-19
1.77751e-19
-3.31166e-19
2.87283e-19
-3.32698e-19
3.90924e-19
-3.3277e-19
4.88013e-19
-3.31395e-19
5.77815e-19
-3.28607e-19
6.59804e-19
-3.24521e-19
7.33551e-19
-3.19152e-19
7.98879e-19
-3.12435e-19
8.55584e-19
-3.04407e-19
9.03736e-19
-2.95038e-19
9.4326e-19
-2.84352e-19
9.74371e-19
-2.72363e-19
9.97107e-19
-2.59035e-19
1.01173e-18
-2.44502e-19
1.01849e-18
-2.28748e-19
1.0175e-18
-2.11801e-19
1.00882e-18
-1.93862e-19
9.92668e-19
-1.74954e-19
9.68992e-19
-1.54982e-19
9.37794e-19
-1.33877e-19
8.9889e-19
-1.12175e-19
8.51533e-19
-9.05331e-20
7.95929e-19
-6.86251e-20
7.32332e-19
-4.89679e-20
6.55561e-19
-3.17904e-20
5.68089e-19
-1.55951e-20
4.74884e-19
-1.31002e-20
3.5701e-19
-6.83907e-21
2.31114e-19
8.19947e-20
-3.70549e-21
-1.46e-19
-1.31262e-20
-3.95e-19
-2.81742e-20
-6.14743e-19
-4.8946e-20
-8.01372e-19
-7.3823e-20
-9.57124e-19
-1.01835e-19
-1.08309e-18
-1.31928e-19
-1.18073e-18
-1.63174e-19
-1.25186e-18
-1.9494e-19
-1.29798e-18
-2.26895e-19
-1.32091e-18
-2.586e-19
-1.32215e-18
-2.89675e-19
-1.30336e-18
-3.19898e-19
-1.26655e-18
-3.49022e-19
-1.21345e-18
-3.76779e-19
-1.14577e-18
-4.02986e-19
-1.06534e-18
-4.27484e-19
-9.73864e-19
-4.50179e-19
-8.73138e-19
-4.70909e-19
-7.64844e-19
-4.89618e-19
-6.50716e-19
-5.06069e-19
-5.32404e-19
-5.20133e-19
-4.11523e-19
-5.31595e-19
-2.89546e-19
-5.40641e-19
-1.6813e-19
-5.47287e-19
-4.86218e-20
-5.51815e-19
6.76392e-20
-5.54196e-19
1.79729e-19
-5.54411e-19
2.86778e-19
-5.52182e-19
3.88166e-19
-5.47567e-19
4.8302e-19
-5.40558e-19
5.7068e-19
-5.31337e-19
6.50491e-19
-5.19901e-19
7.2217e-19
-5.06412e-19
7.85499e-19
-4.90883e-19
8.40343e-19
-4.73481e-19
8.86616e-19
-4.54223e-19
9.24374e-19
-4.33255e-19
9.53731e-19
-4.10603e-19
9.74903e-19
-3.86478e-19
9.8806e-19
-3.60884e-19
9.93439e-19
-3.34016e-19
9.91199e-19
-3.06066e-19
9.81466e-19
-2.7727e-19
9.64399e-19
-2.47658e-19
9.40051e-19
-2.1729e-19
9.0836e-19
-1.86342e-19
8.69156e-19
-1.55138e-19
8.22477e-19
-1.24297e-19
7.67184e-19
-9.50016e-20
7.02043e-19
-6.641e-20
6.3078e-19
-4.31904e-20
5.48217e-19
-2.93124e-20
4.46169e-19
-8.4246e-21
3.43376e-19
-5.49777e-22
2.17353e-19
8.11597e-20
-5.98629e-21
-1.39286e-19
-1.76995e-20
-3.80866e-19
-3.80701e-20
-5.9288e-19
-6.53733e-20
-7.72765e-19
-9.88923e-20
-9.23187e-19
-1.36982e-19
-1.04511e-18
-1.78184e-19
-1.13979e-18
-2.21404e-19
-1.20889e-18
-2.6584e-19
-1.25382e-18
-3.10851e-19
-1.27619e-18
-3.55796e-19
-1.27752e-18
-4.0002e-19
-1.25946e-18
-4.43142e-19
-1.22383e-18
-4.8468e-19
-1.17232e-18
-5.24232e-19
-1.10663e-18
-5.61476e-19
-1.02846e-18
-5.96157e-19
-9.39565e-19
-6.27994e-19
-8.41648e-19
-6.56805e-19
-7.36411e-19
-6.82372e-19
-6.25515e-19
-7.04586e-19
-5.10531e-19
-7.23286e-19
-3.93032e-19
-7.38487e-19
-2.74602e-19
-7.50093e-19
-1.56769e-19
-7.58133e-19
-4.08792e-20
-7.62604e-19
7.1868e-20
-7.63546e-19
1.80531e-19
-7.60949e-19
2.84235e-19
-7.54943e-19
3.82248e-19
-7.45571e-19
4.73768e-19
-7.33058e-19
5.58232e-19
-7.17506e-19
6.35082e-19
-6.99113e-19
7.03984e-19
-6.77898e-19
7.64607e-19
-6.54114e-19
8.16885e-19
-6.27809e-19
8.60687e-19
-5.99277e-19
8.96241e-19
-5.68603e-19
9.2353e-19
-5.3604e-19
9.42829e-19
-5.01744e-19
9.54281e-19
-4.65934e-19
9.58183e-19
-4.28828e-19
9.54652e-19
-3.90773e-19
9.43942e-19
-3.51977e-19
9.26095e-19
-3.12653e-19
9.01299e-19
-2.72927e-19
8.69526e-19
-2.32853e-19
8.30696e-19
-1.93219e-19
7.84024e-19
-1.54925e-19
7.30119e-19
-1.17425e-19
6.69485e-19
-8.41711e-20
5.95948e-19
-5.51535e-20
5.1332e-19
-2.76382e-20
4.29321e-19
-2.08368e-20
3.20253e-19
-9.21273e-21
2.0702e-19
7.19618e-20
-5.4177e-21
-1.33068e-19
-2.1482e-20
-3.62806e-19
-4.63763e-20
-5.65305e-19
-8.0593e-20
-7.37308e-19
-1.22198e-19
-8.81231e-19
-1.69458e-19
-9.98e-19
-2.20934e-19
-1.08865e-18
-2.75333e-19
-1.15486e-18
-3.31534e-19
-1.19796e-18
-3.88641e-19
-1.21941e-18
-4.4581e-19
-1.22072e-18
-5.02248e-19
-1.20343e-18
-5.57324e-19
-1.16921e-18
-6.10393e-19
-1.11969e-18
-6.60896e-19
-1.05654e-18
-7.08374e-19
-9.81369e-19
-7.5244e-19
-8.95889e-19
-7.92739e-19
-8.01709e-19
-8.29016e-19
-7.0055e-19
-8.60991e-19
-5.93919e-19
-8.88495e-19
-4.8349e-19
-9.11327e-19
-3.70677e-19
-9.29562e-19
-2.57042e-19
-9.43084e-19
-1.43868e-19
-9.51965e-19
-3.26441e-20
-9.5602e-19
7.56349e-20
-9.55391e-19
1.79785e-19
-9.50061e-19
2.7915e-19
-9.404e-19
3.72828e-19
-9.26561e-19
4.60308e-19
-9.08853e-19
5.40781e-19
-8.87252e-19
6.13937e-19
-8.62112e-19
6.79215e-19
-8.33473e-19
7.36535e-19
-8.01781e-19
7.8564e-19
-7.67118e-19
8.26678e-19
-7.29887e-19
8.59534e-19
-6.90139e-19
8.84503e-19
-6.48359e-19
9.01623e-19
-6.04643e-19
9.11311e-19
-5.5947e-19
9.13606e-19
-5.12957e-19
9.08913e-19
-4.65703e-19
8.97235e-19
-4.17819e-19
8.78892e-19
-3.69744e-19
8.53877e-19
-3.21477e-19
8.22316e-19
-2.73676e-19
7.83923e-19
-2.26463e-19
7.39189e-19
-1.80675e-19
6.86733e-19
-1.37965e-19
6.24975e-19
-9.71787e-20
5.59635e-19
-6.31813e-20
4.84767e-19
-4.24373e-20
3.89844e-19
-1.22959e-20
3.00353e-19
-5.67438e-22
1.88267e-19
7.10115e-20
-7.52709e-21
-1.24786e-19
-2.49091e-20
-3.41431e-19
-5.4749e-20
-5.33567e-19
-9.45034e-20
-6.96002e-19
-1.43453e-19
-8.31619e-19
-1.99412e-19
-9.42107e-19
-2.60517e-19
-1.02781e-18
-3.25265e-19
-1.09037e-18
-3.92345e-19
-1.1311e-18
-4.60652e-19
-1.15138e-18
-5.29116e-19
-1.1525e-18
-5.96849e-19
-1.13603e-18
-6.62926e-19
-1.10346e-18
-7.26626e-19
-1.05638e-18
-7.87175e-19
-9.96297e-19
-8.44047e-19
-9.24795e-19
-8.96655e-19
-8.43481e-19
-9.44728e-19
-7.53978e-19
-9.87712e-19
-6.57797e-19
-1.02549e-18
-5.56511e-19
-1.05762e-18
-4.51582e-19
-1.08427e-18
-3.44527e-19
-1.10501e-18
-2.36724e-19
-1.12007e-18
-1.29484e-19
-1.12911e-18
-2.40201e-20
-1.1325e-18
7.86129e-20
-1.13001e-18
1.77408e-19
-1.12224e-18
2.71507e-19
-1.10896e-18
3.60039e-19
-1.09084e-18
4.42468e-19
-1.0677e-18
5.18203e-19
-1.04033e-18
5.86866e-19
-1.00853e-18
6.48008e-19
-9.73088e-19
7.01459e-19
-9.33764e-19
7.47018e-19
-8.91419e-19
7.8477e-19
-8.4583e-19
8.14672e-19
-7.97874e-19
8.3701e-19
-7.474e-19
8.51875e-19
-6.95251e-19
8.59605e-19
-6.41308e-19
8.60357e-19
-5.86472e-19
8.5445e-19
-5.30686e-19
8.42037e-19
-4.74813e-19
8.23352e-19
-4.18781e-19
7.9846e-19
-3.63302e-19
7.67542e-19
-3.08139e-19
7.30496e-19
-2.54678e-19
6.8659e-19
-2.03553e-19
6.36549e-19
-1.54261e-19
5.81713e-19
-1.10849e-19
5.14025e-19
-7.26644e-20
4.38823e-19
-3.62627e-20
3.67909e-19
-2.64788e-20
2.70948e-19
-1.24863e-20
1.74747e-19
5.85002e-20
-7.06568e-21
-1.16247e-19
-2.79605e-20
-3.1831e-19
-6.14261e-20
-4.96743e-19
-1.07217e-19
-6.48257e-19
-1.63385e-19
-7.74635e-19
-2.27352e-19
-8.77745e-19
-2.97327e-19
-9.57637e-19
-3.71599e-19
-1.01587e-18
-4.48775e-19
-1.05379e-18
-5.2736e-19
-1.07256e-18
-6.06317e-19
-1.07347e-18
-6.84339e-19
-1.05793e-18
-7.6062e-19
-1.02728e-18
-8.33919e-19
-9.82991e-19
-9.03738e-19
-9.26419e-19
-9.69028e-19
-8.59274e-19
-1.02962e-18
-7.82883e-19
-1.08446e-18
-6.98897e-19
-1.13367e-18
-6.0857e-19
-1.17631e-18
-5.13611e-19
-1.21275e-18
-4.15171e-19
-1.2422e-18
-3.14924e-19
-1.26523e-18
-2.13821e-19
-1.28117e-18
-1.13511e-19
-1.29061e-18
-1.47152e-20
-1.29287e-18
8.10665e-20
-1.28874e-18
1.73382e-19
-1.27773e-18
2.60892e-19
-1.26093e-18
3.43464e-19
-1.23801e-18
4.19932e-19
-1.21006e-18
4.90373e-19
-1.17675e-18
5.5375e-19
-1.13905e-18
6.10365e-19
-1.09665e-18
6.59308e-19
-1.05061e-18
7.01061e-19
-1.00062e-18
7.34998e-19
-9.47749e-19
7.61862e-19
-8.91747e-19
7.81184e-19
-8.33678e-19
7.93777e-19
-7.73366e-19
7.99308e-19
-7.11908e-19
7.98645e-19
-6.49169e-19
7.9151e-19
-5.86165e-19
7.78698e-19
-5.22883e-19
7.59877e-19
-4.60143e-19
7.35686e-19
-3.97896e-19
7.05661e-19
-3.37216e-19
6.70075e-19
-2.78063e-19
6.29208e-19
-2.21204e-19
5.8218e-19
-1.69269e-19
5.25945e-19
-1.19558e-19
4.69206e-19
-7.77342e-20
4.05482e-19
-5.21612e-20
3.19716e-19
-1.46143e-20
2.45283e-19
-7.128e-22
1.5285e-19
5.73467e-20
-8.61006e-21
-1.06913e-19
-3.05281e-20
-2.92611e-19
-6.86351e-20
-4.5612e-19
-1.19542e-19
-5.96066e-19
-1.8197e-19
-7.11761e-19
-2.5355e-19
-8.06313e-19
-3.31804e-19
-8.79744e-19
-4.1497e-19
-9.33116e-19
-5.01345e-19
-9.67778e-19
-5.89513e-19
-9.84877e-19
-6.77958e-19
-9.85581e-19
-7.65517e-19
-9.70976e-19
-8.50953e-19
-9.42496e-19
-9.33217e-19
-9.01367e-19
-1.0113e-18
-8.49053e-19
-1.08439e-18
-7.86807e-19
-1.15187e-18
-7.16138e-19
-1.21308e-18
-6.38304e-19
-1.26754e-18
-5.54889e-19
-1.31472e-18
-4.66934e-19
-1.35457e-18
-3.76112e-19
-1.38661e-18
-2.8327e-19
-1.41117e-18
-1.90127e-19
-1.42765e-18
-9.7347e-20
-1.43668e-18
-6.50599e-21
-1.43759e-18
8.18736e-20
-1.4313e-18
1.66478e-19
-1.41724e-18
2.47084e-19
-1.39673e-18
3.22522e-19
-1.36926e-18
3.92868e-19
-1.33637e-18
4.57086e-19
-1.29741e-18
5.15353e-19
-1.25393e-18
5.6664e-19
-1.20511e-18
6.11198e-19
-1.15258e-18
6.4842e-19
-1.09557e-18
6.78817e-19
-1.0358e-18
7.02072e-19
-9.72518e-19
7.1871e-19
-9.07385e-19
7.28664e-19
-8.39772e-19
7.32449e-19
-7.71377e-19
7.30221e-19
-7.01614e-19
7.22537e-19
-6.32143e-19
7.09407e-19
-5.62389e-19
6.9117e-19
-4.93834e-19
6.67768e-19
-4.26009e-19
6.39451e-19
-3.60119e-19
6.06261e-19
-2.96285e-19
5.67224e-19
-2.3704e-19
5.23061e-19
-1.79491e-19
4.76917e-19
-1.29516e-19
4.18742e-19
-8.61983e-20
3.51547e-19
-4.20631e-20
2.96263e-19
-3.01531e-20
2.13936e-19
-1.43487e-20
1.38841e-19
4.30937e-20
-8.78458e-21
-9.73045e-20
-3.30321e-20
-2.65618e-19
-7.49653e-20
-4.13781e-19
-1.31275e-19
-5.40124e-19
-1.99993e-19
-6.44959e-19
-2.78732e-19
-7.30443e-19
-3.64546e-19
-7.96637e-19
-4.5602e-19
-8.44686e-19
-5.50802e-19
-8.75764e-19
-6.47896e-19
-8.91045e-19
-7.4487e-19
-8.91341e-19
-8.41411e-19
-8.78074e-19
-9.34767e-19
-8.52066e-19
-1.02546e-18
-8.1474e-19
-1.11053e-18
-7.66928e-19
-1.19137e-18
-7.10461e-19
-1.26438e-18
-6.46053e-19
-1.33192e-18
-5.75467e-19
-1.39005e-18
-4.99308e-19
-1.44216e-18
-4.19585e-19
-1.4837e-18
-3.36679e-19
-1.51905e-18
-2.52653e-19
-1.54321e-18
-1.67612e-19
-1.56137e-18
-8.36535e-20
-1.56805e-18
-7.66384e-22
-1.56903e-18
7.90654e-20
-1.55849e-18
1.56213e-19
-1.54307e-18
2.28794e-19
-1.51666e-18
2.97583e-19
-1.48658e-18
3.60903e-19
-1.44657e-18
4.19611e-19
-1.40422e-18
4.71953e-19
-1.35295e-18
5.18722e-19
-1.30031e-18
5.58208e-19
-1.23953e-18
5.91563e-19
-1.17821e-18
6.17677e-19
-1.10986e-18
6.37999e-19
-1.04198e-18
6.5174e-19
-9.68385e-19
6.5986e-19
-8.96133e-19
6.61782e-19
-8.19443e-19
6.58846e-19
-7.45103e-19
6.50658e-19
-6.68005e-19
6.38128e-19
-5.94217e-19
6.20784e-19
-5.19208e-19
5.99134e-19
-4.47995e-19
5.72627e-19
-3.77099e-19
5.41415e-19
-3.11063e-19
5.06201e-19
-2.45943e-19
4.66936e-19
-1.88471e-19
4.1897e-19
-1.34878e-19
3.70506e-19
-8.70701e-20
3.22161e-19
-5.87032e-20
2.48563e-19
-1.64964e-20
1.89607e-19
1.16088e-21
1.1757e-19
4.41563e-20
-8.20285e-21
-8.79108e-20
-3.64527e-20
-2.38222e-19
-8.12108e-20
-3.69891e-19
-1.42994e-19
-4.8153e-19
-2.17549e-19
-5.7443e-19
-3.02728e-19
-6.48791e-19
-3.96212e-19
-7.07085e-19
-4.94969e-19
-7.49108e-19
-5.98152e-19
-7.7626e-19
-7.02757e-19
-7.89248e-19
-8.08484e-19
-7.89574e-19
-9.1202e-19
-7.77318e-19
-1.01402e-18
-7.544e-19
-1.11091e-18
-7.20791e-19
-1.20416e-18
-6.78859e-19