/*--------------------------------*- C++ -*----------------------------------*\
| =========                 |                                                 |
| \\      /  F ield         | OpenFOAM: The Open Source CFD Toolbox           |
|  \\    /   O peration     | Version:  5.0                                   |
|   \\  /    A nd           | Web:      www.OpenFOAM.org                      |
|    \\/     M anipulation  |                                                 |
\*---------------------------------------------------------------------------*/
FoamFile
{
    version     2.0;
    format      ascii;
    class       volVectorField;
    location    "4";
    object      U;
}
// * * * * * * * * * * * * * * * * * * * * * * * * * * * * * * * * * * * * * //

dimensions      [0 1 -1 0 0 0 0];

internalField   nonuniform List<vector> 
25
(
(1 -2.20832e-10 -1.41015e-29)
(1 -2.45719e-09 -3.23241e-23)
(1 -1.41447e-09 -3.2324e-23)
(1 -5.99837e-10 -3.2324e-23)
(1 8.86677e-10 1.78094e-29)
(0.92 5.13478e-11 -7.11299e-37)
(0.92 -5.69693e-09 2.79794e-23)
(0.92 -3.59118e-09 4.685e-29)
(0.92 -1.37427e-09 -2.79793e-23)
(0.92 2.0347e-09 -2.79794e-23)
(0.76 -9.7159e-10 -2.73702e-23)
(0.76 -1.00851e-08 -1.16609e-28)
(0.76 -9.14647e-09 2.79794e-23)
(0.76 -7.83378e-09 -5.59588e-23)
(0.76 1.33155e-11 -5.59588e-23)
(0.52 -1.39324e-09 5.48442e-23)
(0.52 -1.5385e-08 2.7979e-23)
(0.52 -1.34817e-08 -5.59588e-23)
(0.52 -1.50478e-08 -2.79791e-23)
(0.52 -2.68386e-09 5.59588e-23)
(0.2 -7.25066e-10 3.93808e-23)
(0.2 -5.52107e-09 1.99394e-23)
(0.2 -5.07225e-09 -5.98181e-23)
(0.2 -5.91463e-09 -1.99393e-23)
(0.2 -1.19473e-09 3.98787e-23)
)
;

boundaryField
{
    top
    {
        type            fixedValue;
        value           uniform (0 0 0);
    }
    bottom
    {
        type            symmetryPlane;
    }
    inlet
    {
        type            pressureInletVelocity;
        value           nonuniform List<vector> 5((1 -0 -0) (0.92 -0 -0) (0.76 -0 -0) (0.52 -0 -0) (0.2 -0 -0));
    }
    outlet
    {
        type            inletOutlet;
        inletValue      nonuniform 0();
        value           nonuniform 0();
    }
    frontAndBack
    {
        type            empty;
    }
    procBoundary0to1
    {
        type            processor;
        value           nonuniform List<vector> 5((1 1.72045e-09 6.46481e-23) (0.92 3.47761e-09 -2.79794e-23) (0.76 6.67195e-09 2.79794e-23) (0.52 9.2249e-09 5.59589e-23) (0.2 3.33854e-09 3.98787e-23));
    }
}


// ************************************************************************* //
