/*--------------------------------*- C++ -*----------------------------------*\
| =========                 |                                                 |
| \\      /  F ield         | OpenFOAM: The Open Source CFD Toolbox           |
|  \\    /   O peration     | Version:  5.0                                   |
|   \\  /    A nd           | Web:      www.OpenFOAM.org                      |
|    \\/     M anipulation  |                                                 |
\*---------------------------------------------------------------------------*/
FoamFile
{
    version     2.0;
    format      ascii;
    class       volVectorField;
    location    "4";
    object      U;
}
// * * * * * * * * * * * * * * * * * * * * * * * * * * * * * * * * * * * * * //

dimensions      [0 1 -1 0 0 0 0];

internalField   nonuniform List<vector> 
25
(
(0.986276 0.00422366 6.14975e-23)
(0.985385 -7.57787e-06 -4.39737e-23)
(0.984007 1.69759e-06 -4.61725e-23)
(0.985873 5.92029e-05 -4.61323e-23)
(0.981194 -0.00205175 3.29813e-23)
(0.786148 0.00347633 -8.95568e-37)
(0.789623 -3.97325e-05 4.68478e-23)
(0.787758 3.18815e-05 5.3562e-26)
(0.789576 0.00024904 -3.73613e-23)
(0.786648 -0.00135348 -4.09476e-23)
(0.589211 -8.74201e-05 -2.58732e-23)
(0.592921 0.000195233 -2.95105e-26)
(0.5913 3.30837e-05 2.75384e-23)
(0.592747 3.51421e-05 -5.57491e-23)
(0.591119 0.000274308 -5.46202e-23)
(0.39513 -0.00265941 -1.44185e-22)
(0.395006 0.000313419 3.13506e-23)
(0.394706 2.28967e-05 -4.12014e-23)
(0.39527 -9.5547e-05 -1.58892e-23)
(0.395296 0.00143894 -5.21574e-23)
(0.200824 -0.0113056 3.64524e-23)
(0.197127 4.40564e-05 1.57045e-23)
(0.19813 1.62448e-05 -4.94728e-23)
(0.197813 -2.83356e-06 -1.50658e-23)
(0.199138 0.00565553 3.40529e-23)
)
;

boundaryField
{
    top
    {
        type            fixedValue;
        value           uniform (0 0 0);
    }
    bottom
    {
        type            symmetryPlane;
    }
    inlet
    {
        type            pressureInletVelocity;
        value           nonuniform List<vector> 5((0.987142 -0 -0) (0.785401 -0 -0) (0.587912 -0 -0) (0.394959 -0 -0) (0.202756 -0 -0));
    }
    outlet
    {
        type            inletOutlet;
        inletValue      nonuniform 0();
        value           nonuniform 0();
    }
    frontAndBack
    {
        type            empty;
    }
    procBoundary0to1
    {
        type            processor;
        value           nonuniform List<vector> 5((0.985368 0.00241454 9.08007e-23) (0.789872 0.00554132 -3.46575e-23) (0.593506 0.00254877 4.8144e-23) (0.396744 -0.000590879 1.2299e-22) (0.199603 -0.0051668 7.95394e-25));
    }
}


// ************************************************************************* //
