/*--------------------------------*- C++ -*----------------------------------*\
| =========                 |                                                 |
| \\      /  F ield         | OpenFOAM: The Open Source CFD Toolbox           |
|  \\    /   O peration     | Version:  5.0                                   |
|   \\  /    A nd           | Web:      www.OpenFOAM.org                      |
|    \\/     M anipulation  |                                                 |
\*---------------------------------------------------------------------------*/
FoamFile
{
    version     2.0;
    format      ascii;
    class       volVectorField;
    location    "45";
    object      U;
}
// * * * * * * * * * * * * * * * * * * * * * * * * * * * * * * * * * * * * * //

dimensions      [0 1 -1 0 0 0 0];

internalField   nonuniform List<vector> 
7000
(
(0.00597874 -0.00094665 -0.0254442)
(0.0184618 -0.00140749 -0.00665912)
(0.0226301 -0.00131359 -0.00188142)
(0.0216918 -0.000964064 -0.00040132)
(0.0200743 -0.000587349 0.000364094)
(0.0186497 -0.000217003 0.000800079)
(0.0168851 0.000209245 0.00104098)
(0.0143782 0.000609535 0.00122503)
(0.0111305 0.000825078 0.00140639)
(0.00725475 0.000724848 0.00154724)
(0.00286823 -3.8343e-05 0.00166805)
(-0.00085593 -0.00169725 0.00177378)
(-0.00147609 -0.0036117 0.0019367)
(-0.000795519 -0.00389615 0.00168103)
(0.00621058 -0.00165903 -0.0278399)
(0.0196709 -0.00230474 -0.00940075)
(0.0248306 -0.00213771 -0.00417534)
(0.0251105 -0.0018226 -0.00234324)
(0.0247796 -0.00150449 -0.00125985)
(0.0245913 -0.00114345 -0.000489586)
(0.0241465 -0.00070626 7.02301e-05)
(0.0232797 -0.00018782 0.000539421)
(0.0219282 0.000373701 0.000975267)
(0.0199579 0.000832826 0.00137828)
(0.0172422 0.000872313 0.00172497)
(0.0136765 -3.87565e-06 0.00202242)
(0.00895291 -0.00261531 0.00242489)
(0.00322136 -0.00524388 0.0024717)
(0.00629978 -0.000958068 -0.0276431)
(0.0198749 -0.00146133 -0.00929859)
(0.0249882 -0.0015888 -0.00420447)
(0.0251336 -0.00162659 -0.00246799)
(0.0248525 -0.00159575 -0.00147463)
(0.0248172 -0.00147268 -0.000778185)
(0.024588 -0.00125919 -0.000272936)
(0.0239689 -0.000974288 0.000154761)
(0.0229274 -0.000642127 0.000570554)
(0.0214044 -0.000371999 0.00101607)
(0.0191919 -0.000405861 0.00150956)
(0.0159792 -0.00101143 0.00202861)
(0.0113339 -0.00243624 0.00261863)
(0.00444733 -0.00351448 0.00270856)
(0.00628712 -0.000905612 -0.0275817)
(0.0198934 -0.00153036 -0.00924264)
(0.0250598 -0.00177441 -0.00414801)
(0.0252487 -0.00185321 -0.00242343)
(0.0249849 -0.00184717 -0.00145372)
(0.0249761 -0.00177446 -0.000807124)
(0.0247617 -0.00164125 -0.000364183)
(0.0241406 -0.0014539 1.35201e-05)
(0.023068 -0.00122544 0.000402477)
(0.0214305 -0.001006 0.000860643)
(0.0190261 -0.000903998 0.00142332)
(0.0155614 -0.00106359 0.0020622)
(0.0106828 -0.00164589 0.00275169)
(0.00378006 -0.00193531 0.00282438)
(0.00629769 -0.000873148 -0.0276078)
(0.0199108 -0.00147248 -0.00925688)
(0.0251038 -0.00169912 -0.00415125)
(0.0252956 -0.0017732 -0.00243398)
(0.025013 -0.00178178 -0.00147447)
(0.0250104 -0.00174709 -0.000850551)
(0.0248077 -0.00167061 -0.00043786)
(0.0241965 -0.00154651 -9.02535e-05)
(0.0231205 -0.0013787 0.00028403)
(0.0214321 -0.0011864 0.000758799)
(0.0188881 -0.00103707 0.00138265)
(0.0151978 -0.00102843 0.00211313)
(0.010112 -0.00125039 0.00286031)
(0.0033558 -0.00122649 0.00289837)
(0.00629955 -0.000786486 -0.0276251)
(0.0199121 -0.00132679 -0.00926826)
(0.0251207 -0.0015433 -0.00415338)
(0.0253203 -0.00162552 -0.00244009)
(0.0250339 -0.0016497 -0.00148774)
(0.0250463 -0.00163731 -0.000874779)
(0.0248682 -0.00158899 -0.000473855)
(0.0242838 -0.0014993 -0.000142022)
(0.0232259 -0.00137062 0.00022145)
(0.0215286 -0.00121527 0.000704097)
(0.0189213 -0.00107575 0.00136466)
(0.0151111 -0.00101457 0.00214981)
(0.0098985 -0.00110183 0.00292785)
(0.00318183 -0.00100606 0.00294659)
(0.00628999 -0.000692536 -0.0276239)
(0.0199014 -0.00117125 -0.00926577)
(0.0251325 -0.00137077 -0.00414748)
(0.0253539 -0.00144957 -0.00243488)
(0.0250789 -0.00147581 -0.00148772)
(0.0251076 -0.00147125 -0.000884501)
(0.0249531 -0.00143651 -0.00049208)
(0.0243968 -0.00136895 -0.000168915)
(0.0233636 -0.00127172 0.000189731)
(0.0216742 -0.00115525 0.00067529)
(0.0190425 -0.00104723 0.00135378)
(0.0151733 -0.0009884 0.00217049)
(0.00988074 -0.00104731 0.00296623)
(0.00316547 -0.000958843 0.00298183)
(0.00628204 -0.000615611 -0.027625)
(0.0198917 -0.00104544 -0.00926786)
(0.0251458 -0.00122577 -0.00414658)
(0.0253921 -0.00129572 -0.00243254)
(0.0251331 -0.00131754 -0.0014864)
(0.0251782 -0.0013127 -0.000886109)
(0.0250441 -0.00128348 -0.000499204)
(0.02451 -0.00122995 -0.00018229)
(0.0234974 -0.00115644 0.000173983)
(0.02182 -0.00107268 0.000662)
(0.01918 -0.000998435 0.00134951)
(0.015279 -0.000961096 0.00218232)
(0.00993572 -0.00102796 0.00299052)
(0.00318274 -0.000962003 0.00300837)
(0.00628014 -0.000548107 -0.0276364)
(0.0198898 -0.000938218 -0.00928146)
(0.0251645 -0.00109963 -0.0041557)
(0.0254332 -0.00115883 -0.00243845)
(0.0251876 -0.00117385 -0.00149094)
(0.0252462 -0.00116498 -0.0008905)
(0.0251279 -0.00113604 -0.000504024)
(0.0246096 -0.00109048 -0.000189076)
(0.02361 -0.00103452 0.000164905)
(0.0219399 -0.000976914 0.000653928)
(0.0192954 -0.000932797 0.00134725)
(0.0153729 -0.000922364 0.00218838)
(0.00999172 -0.00101022 0.00300731)
(0.00319741 -0.000974569 0.00302906)
(0.00628394 -0.000479829 -0.0276572)
(0.0198975 -0.000830525 -0.00930498)
(0.0251931 -0.000972019 -0.00417361)
(0.0254813 -0.00101955 -0.00245233)
(0.0252459 -0.00102784 -0.0015021)
(0.0253127 -0.00101544 -0.00089953)
(0.0252054 -0.00098676 -0.000511275)
(0.0246966 -0.000947832 -0.000195985)
(0.0237036 -0.000906517 0.000157952)
(0.0220359 -0.000871232 0.000647232)
(0.0193858 -0.000854521 0.00134443)
(0.0154466 -0.000872488 0.00219195)
(0.0100331 -0.000990245 0.00301927)
(0.00320531 -0.00100055 0.00304586)
(0.00629178 -0.000408198 -0.0276837)
(0.0199146 -0.00071502 -0.00933503)
(0.0252352 -0.000833543 -0.00419734)
(0.0255429 -0.000867383 -0.00247128)
(0.0253167 -0.000868977 -0.00151792)
(0.0253895 -0.000854419 -0.000912352)
(0.0252894 -0.000827609 -0.000521051)
(0.0247849 -0.000796075 -0.000203931)
(0.0237931 -0.000768949 0.000151362)
(0.0221234 -0.000754587 0.000641888)
(0.0194668 -0.000764461 0.00134151)
(0.0155138 -0.000811908 0.00219434)
(0.0100755 -0.000966662 0.00302861)
(0.00321449 -0.00103932 0.00306067)
(0.00630169 -0.000336505 -0.0277116)
(0.0199395 -0.000595894 -0.00936703)
(0.0252909 -0.00068866 -0.00422303)
(0.0256212 -0.000707019 -0.002492)
(0.0254047 -0.000701638 -0.0015353)
(0.0254835 -0.000685377 -0.000926674)
(0.0253881 -0.000661206 -0.00053159)
(0.0248842 -0.000637722 -0.000211151)
(0.0238893 -0.00062485 0.000146418)
(0.0222146 -0.00063097 0.000638436)
(0.0195512 -0.000666977 0.00133942)
(0.0155873 -0.000744322 0.00219569)
(0.0101317 -0.00093836 0.00303539)
(0.00323787 -0.00107948 0.00307414)
(0.0063135 -0.00026966 -0.027739)
(0.0199711 -0.00048137 -0.00939847)
(0.025358 -0.000547462 -0.00424835)
(0.0257133 -0.000550096 -0.00251213)
(0.0255075 -0.000537344 -0.0015519)
(0.0255932 -0.000518884 -0.000940055)
(0.0255008 -0.000497179 -0.000540685)
(0.0249944 -0.000481466 -0.000216091)
(0.0239931 -0.000481957 0.000144517)
(0.0223109 -0.000507202 0.000638153)
(0.0196401 -0.000567471 0.00133971)
(0.0156679 -0.000672878 0.00219714)
(0.0101989 -0.000902718 0.00304085)
(0.0032774 -0.00110521 0.00308629)
(0.00632598 -0.00021145 -0.0277649)
(0.0200075 -0.000378759 -0.00942779)
(0.0254328 -0.000419309 -0.00427174)
(0.025814 -0.000407018 -0.00253089)
(0.0256194 -0.000386389 -0.00156732)
(0.0257125 -0.000365285 -0.000952034)
(0.0256211 -0.000345784 -0.000547844)
(0.0251098 -0.000336927 -0.000218596)
(0.0240993 -0.000348804 0.000145667)
(0.022407 -0.000390281 0.00064139)
(0.0197276 -0.000471085 0.00134315)
(0.015748 -0.00060014 0.00219964)
(0.0102692 -0.000857926 0.00304524)
(0.00332329 -0.00110548 0.00309643)
(0.00633854 -0.000163739 -0.027788)
(0.0200472 -0.0002931 -0.00945268)
(0.0255124 -0.000311007 -0.0042914)
(0.025919 -0.000284979 -0.00254673)
(0.0257353 -0.000256686 -0.00158015)
(0.0258352 -0.000233127 -0.000961373)
(0.0257427 -0.000215279 -0.000552262)
(0.025224 -0.000211701 -0.000218135)
(0.0242019 -0.000232183 0.000150055)
(0.0224966 -0.000285733 0.000648717)
(0.0198068 -0.00038193 0.00135014)
(0.0158196 -0.000528325 0.0022038)
(0.0103338 -0.000803209 0.00304896)
(0.00336545 -0.00107638 0.003104)
(0.00635307 -0.000127059 -0.0278088)
(0.0200894 -0.000225901 -0.00947313)
(0.025594 -0.000225536 -0.00430696)
(0.0260246 -0.000188165 -0.00255851)
(0.0258514 -0.000153472 -0.0015894)
(0.0259535 -0.000127651 -0.000966318)
(0.0258577 -0.000110591 -0.000552589)
(0.0253301 -0.000110407 -0.000213962)
(0.0242946 -0.000136402 0.000157996)
(0.0225744 -0.000197591 0.000659485)
(0.0198728 -0.000303301 0.00136013)
(0.0158777 -0.000459581 0.00220951)
(0.0103879 -0.000739397 0.00305201)
(0.00340159 -0.00101912 0.00310874)
(0.00636834 -0.000101451 -0.0278264)
(0.0201314 -0.000176233 -0.00948919)
(0.025673 -0.000162916 -0.0043187)
(0.0261258 -0.000118182 -0.00256707)
(0.0259619 -7.8981e-05 -0.00159591)
(0.0260639 -5.10803e-05 -0.00096882)
(0.0259632 -3.40647e-05 -0.000550987)
(0.0254256 -3.54658e-05 -0.000207743)
(0.0243754 -6.38912e-05 0.000168555)
(0.0226389 -0.000128294 0.000672262)
(0.0199242 -0.000237392 0.001372)
(0.0159209 -0.000395676 0.00221625)
(0.0104294 -0.000668257 0.00305431)
(0.0034298 -0.000936878 0.0031107)
(0.00638253 -8.64884e-05 -0.027841)
(0.0201712 -0.000143486 -0.00950277)
(0.025746 -0.000122531 -0.00432844)
(0.0262187 -7.47869e-05 -0.00257333)
(0.0260629 -3.34321e-05 -0.00159982)
(0.0261635 -4.04979e-06 -0.000968832)
(0.0260569 1.34901e-05 -0.000547433)
(0.0255084 1.22414e-05 -0.000199711)
(0.0244428 -1.57063e-05 0.000180784)
(0.0226894 -7.89004e-05 0.00068668)
(0.0199605 -0.000185273 0.0013855)
(0.0159488 -0.000337831 0.00222401)
(0.0104573 -0.000591865 0.00305614)
(0.00345015 -0.000833878 0.00311018)
(0.00639492 -8.11496e-05 -0.0278524)
(0.0202071 -0.000127171 -0.00951376)
(0.0258097 -0.000103564 -0.00433574)
(0.0262995 -5.68721e-05 -0.00257765)
(0.0261507 -1.58309e-05 -0.00160217)
(0.0262493 1.41288e-05 -0.000967437)
(0.0261362 3.24374e-05 -0.000542046)
(0.0255768 3.27809e-05 -0.000189489)
(0.024496 7.98765e-06 0.000194114)
(0.0227253 -4.98036e-05 0.000701778)
(0.0199821 -0.000147623 0.00139969)
(0.0159618 -0.000287257 0.00223239)
(0.0104714 -0.00051284 0.00305772)
(0.00346219 -0.000715452 0.00310776)
(0.00640396 -8.37808e-05 -0.0278598)
(0.020237 -0.000125839 -0.00952089)
(0.0258616 -0.000104295 -0.00433987)
(0.0263652 -6.21227e-05 -0.0025798)
(0.0262225 -2.35818e-05 -0.00160326)
(0.0263187 5.92494e-06 -0.000965342)
(0.0261993 2.48897e-05 -0.000536418)
(0.0256293 2.78145e-05 -0.000179279)
(0.0245341 8.5094e-06 0.000206875)
(0.0227469 -4.00976e-05 0.000715993)
(0.0199893 -0.000124242 0.00141332)
(0.0159604 -0.000244794 0.00224085)
(0.0104715 -0.000434145 0.00305919)
(0.00346549 -0.000588398 0.00310385)
(0.00641111 -9.26718e-05 -0.0278648)
(0.0202611 -0.000137253 -0.00952563)
(0.0259013 -0.000121652 -0.00434271)
(0.0264155 -8.67251e-05 -0.00258051)
(0.0262779 -5.24439e-05 -0.00160287)
(0.0263718 -2.42987e-05 -0.000962798)
(0.0262462 -4.71691e-06 -0.000531976)
(0.0256667 1.62729e-06 -0.00017185)
(0.0245583 -1.04714e-05 0.000217412)
(0.022756 -4.70655e-05 0.000728142)
(0.0199844 -0.000113768 0.00142557)
(0.0159465 -0.000210808 0.002249)
(0.0104591 -0.000359112 0.0030607)
(0.00346083 -0.000460497 0.00309903)
(0.0064188 -0.00010613 -0.0278687)
(0.0202809 -0.000157784 -0.00952905)
(0.0259304 -0.000150868 -0.00434557)
(0.0264517 -0.000125391 -0.0025817)
(0.026318 -9.68573e-05 -0.0016031)
(0.02641 -7.08419e-05 -0.000961638)
(0.026279 -5.05567e-05 -0.000529367)
(0.0256914 -4.00884e-05 -0.000167076)
(0.0245717 -4.39035e-05 0.000225069)
(0.0227555 -6.68986e-05 0.000738231)
(0.019971 -0.000114106 0.00143651)
(0.0159241 -0.000185321 0.00225697)
(0.0104378 -0.000290774 0.0030626)
(0.00345002 -0.000338477 0.00309395)
(0.00642539 -0.000123176 -0.0278708)
(0.0202949 -0.000184578 -0.00953024)
(0.0259482 -0.000188201 -0.00434656)
(0.0264734 -0.000173555 -0.00258221)
(0.0263432 -0.000151712 -0.00160364)
(0.0264341 -0.000128339 -0.000961546)
(0.0262992 -0.000107398 -0.000528501)
(0.0257053 -9.25462e-05 -0.000164425)
(0.0245765 -8.74955e-05 0.000229642)
(0.0227485 -9.63488e-05 0.00074606)
(0.0199522 -0.000123329 0.00144567)
(0.0158963 -0.000168092 0.00226442)
(0.0104106 -0.000231116 0.00306494)
(0.00343361 -0.000227464 0.00308902)
(0.00642771 -0.000142629 -0.0278697)
(0.0203005 -0.000215953 -0.00952834)
(0.0259528 -0.000231538 -0.00434465)
(0.0264796 -0.000228369 -0.00257974)
(0.0263529 -0.000213728 -0.00160094)
(0.0264446 -0.000193199 -0.000958982)
(0.0263076 -0.000171678 -0.000526267)
(0.0257096 -0.000152499 -0.000161784)
(0.0245742 -0.000138514 0.000233186)
(0.0227369 -0.000133323 0.000751926)
(0.0199298 -0.000140376 0.00145394)
(0.0158648 -0.000159254 0.00227171)
(0.0103785 -0.000182211 0.00306795)
(0.00341466 -0.000131544 0.00308471)
(0.00642561 -0.000162203 -0.0278655)
(0.0202979 -0.000249436 -0.0095235)
(0.0259452 -0.000278109 -0.00434073)
(0.0264718 -0.000286496 -0.00257506)
(0.0263487 -0.000279162 -0.0015952)
(0.0264428 -0.000261744 -0.000953596)
(0.0263056 -0.000239801 -0.000521382)
(0.0257055 -0.000216549 -0.000157257)
(0.0245661 -0.000194193 0.00023789)
(0.022722 -0.000175701 0.000757663)
(0.0199056 -0.000164076 0.00146195)
(0.0158318 -0.000159013 0.00228)
(0.0103423 -0.000146446 0.00307241)
(0.00339373 -5.51043e-05 0.0030815)
(0.00642063 -0.000179622 -0.0278596)
(0.0202891 -0.000281706 -0.00951691)
(0.0259284 -0.000323836 -0.00433542)
(0.0264536 -0.000343202 -0.00256939)
(0.026334 -0.000342877 -0.00158879)
(0.026432 -0.00032893 -0.000947661)
(0.0262965 -0.00030703 -0.000516309)
(0.0256964 -0.000280251 -0.000152923)
(0.0245551 -0.000250521 0.000242314)
(0.0227065 -0.000220277 0.000763145)
(0.0198825 -0.000192176 0.00146895)
(0.0158002 -0.000166398 0.00228791)
(0.0103053 -0.000124818 0.00307752)
(0.00337026 -1.3868e-06 0.00307972)
(0.00641401 -0.000193034 -0.0278525)
(0.020276 -0.00030954 -0.00950931)
(0.0259055 -0.000364501 -0.00432923)
(0.0264288 -0.000393786 -0.00256306)
(0.0263128 -0.000400026 -0.00158208)
(0.026416 -0.00038975 -0.000942147)
(0.0262842 -0.000368747 -0.000512182)
(0.0256862 -0.000339573 -0.000150173)
(0.0245454 -0.000303937 0.000244681)
(0.0226944 -0.000264114 0.000766562)
(0.0198643 -0.000222554 0.00147425)
(0.0157735 -0.000179991 0.00229432)
(0.0102716 -0.000117151 0.0030825)
(0.00334736 2.94187e-05 0.00307941)
(0.00640768 -0.000201709 -0.0278452)
(0.0202604 -0.000330517 -0.00950154)
(0.0258797 -0.000396708 -0.00432271)
(0.0264013 -0.000434464 -0.00255683)
(0.0262889 -0.000446622 -0.00157593)
(0.0263985 -0.000440123 -0.000937563)
(0.0262719 -0.000420973 -0.000509358)
(0.025678 -0.000391012 -0.000148995)
(0.0245398 -0.000351572 0.000245134)
(0.0226885 -0.000304834 0.000767659)
(0.0198539 -0.000253275 0.00147727)
(0.0157555 -0.000198275 0.00229951)
(0.0102451 -0.000122102 0.00308755)
(0.00332807 3.82134e-05 0.00308039)
(0.00640268 -0.000205514 -0.0278389)
(0.0202445 -0.000343149 -0.00949467)
(0.0258538 -0.000418229 -0.00431668)
(0.0263743 -0.000462487 -0.00255156)
(0.0262656 -0.000479536 -0.00157061)
(0.026382 -0.000476647 -0.000934015)
(0.0262617 -0.000459835 -0.000507687)
(0.0256734 -0.000430405 -0.000149172)
(0.0245397 -0.000389406 0.000243897)
(0.0226901 -0.000338801 0.000766625)
(0.0198527 -0.000281137 0.00147794)
(0.0157474 -0.000218475 0.00230293)
(0.0102278 -0.00013655 0.0030922)
(0.00331359 2.63892e-05 0.0030823)
(0.00639792 -0.000204075 -0.0278328)
(0.0202285 -0.000347011 -0.00948799)
(0.0258291 -0.000427581 -0.00431018)
(0.0263495 -0.000475583 -0.00254605)
(0.0262445 -0.000496099 -0.00156601)
(0.0263681 -0.000496221 -0.000931655)
(0.0262549 -0.000481738 -0.000507473)
(0.0256734 -0.000453727 -0.000151063)
(0.0245455 -0.000413229 0.000240788)
(0.0226993 -0.000361916 0.000763417)
(0.0198609 -0.00030233 0.00147622)
(0.01575 -0.000237105 0.00230434)
(0.010221 -0.000156732 0.00309602)
(0.00330467 -2.87181e-06 0.00308565)
(0.00639352 -0.000197018 -0.0278271)
(0.020213 -0.000341148 -0.00948165)
(0.0258076 -0.00042339 -0.00430422)
(0.0263295 -0.000472407 -0.00254131)
(0.0262281 -0.000494764 -0.001563)
(0.0263592 -0.000497162 -0.000930768)
(0.0262535 -0.000484942 -0.000508769)
(0.0256794 -0.000459113 -0.000154462)
(0.024558 -0.000420856 0.00023613)
(0.0227163 -0.00037174 0.00075845)
(0.0198785 -0.000314269 0.00147248)
(0.0157635 -0.000251482 0.0023038)
(0.0102254 -0.000179633 0.0030988)
(0.00330316 -4.41315e-05 0.00309066)
(0.00639012 -0.000184245 -0.0278228)
(0.0201997 -0.000324634 -0.00947648)
(0.0257914 -0.000405215 -0.00429885)
(0.0263157 -0.000452907 -0.00253729)
(0.0262182 -0.000475669 -0.00156028)
(0.0263568 -0.000479707 -0.000930237)
(0.0262587 -0.000469672 -0.000510394)
(0.0256919 -0.000446682 -0.000158217)
(0.0245771 -0.000412135 0.000230973)
(0.0227405 -0.000367713 0.00075269)
(0.0199043 -0.000315847 0.00146754)
(0.0157864 -0.000259905 0.00230187)
(0.0102399 -0.000202353 0.00310072)
(0.00330502 -9.10189e-05 0.00309605)
(0.00638741 -0.000166183 -0.0278196)
(0.0201888 -0.000297893 -0.00947189)
(0.0257806 -0.000373443 -0.00429367)
(0.0263086 -0.000417483 -0.00253371)
(0.0262147 -0.000439378 -0.0015586)
(0.0263604 -0.000444567 -0.000930785)
(0.0262697 -0.000436789 -0.000512582)
(0.0257099 -0.0004173 -0.000162287)
(0.0246015 -0.000387874 0.000225574)
(0.0227699 -0.000350262 0.000746575)
(0.0199359 -0.000306811 0.00146193)
(0.0158159 -0.000261147 0.00229898)
(0.0102617 -0.000221425 0.00310185)
(0.00330703 -0.00013919 0.00310146)
(0.00638518 -0.0001438 -0.0278176)
(0.0201807 -0.000262323 -0.0094684)
(0.0257756 -0.000329599 -0.00428973)
(0.0263083 -0.000367851 -0.00253139)
(0.026218 -0.00038747 -0.00155796)
(0.0263702 -0.000393181 -0.000932137)
(0.0262864 -0.000387773 -0.000515354)
(0.0257328 -0.000372462 -0.000166594)
(0.0246299 -0.000349354 0.00022019)
(0.0228029 -0.000320215 0.000740535)
(0.0199714 -0.000287358 0.00145617)
(0.0158505 -0.00025451 0.00229545)
(0.0102893 -0.000234793 0.00310184)
(0.00331781 -0.000185594 0.00310728)
(0.0063845 -0.00011835 -0.0278181)
(0.0201764 -0.000220119 -0.00946787)
(0.0257772 -0.000276582 -0.00428838)
(0.0263156 -0.000307363 -0.00253111)
(0.0262288 -0.000323509 -0.00155894)
(0.0263866 -0.000328879 -0.000934344)
(0.0263086 -0.000325463 -0.000518407)
(0.0257602 -0.000314611 -0.000170714)
(0.0246616 -0.000298503 0.000215337)
(0.0228384 -0.000278916 0.00073516)
(0.0200094 -0.000258204 0.00145084)
(0.0158884 -0.000240005 0.00229176)
(0.0103214 -0.000241837 0.00310261)
(0.00333543 -0.000225777 0.00311347)
(0.00638546 -9.14351e-05 -0.0278204)
(0.0201759 -0.000174057 -0.00946932)
(0.0257849 -0.000217963 -0.00428871)
(0.02633 -0.000240114 -0.00253214)
(0.0262466 -0.000251881 -0.00156089)
(0.0264087 -0.000256143 -0.000936913)
(0.0263354 -0.000254073 -0.000521221)
(0.0257907 -0.000247427 -0.000174044)
(0.024695 -0.000238387 0.000211662)
(0.0228745 -0.000228778 0.000731085)
(0.0200474 -0.000220961 0.00144656)
(0.0159266 -0.000218298 0.00228858)
(0.0103547 -0.000241516 0.00310298)
(0.00335291 -0.000256428 0.00311893)
(0.00638702 -6.48333e-05 -0.0278235)
(0.0201784 -0.000127163 -0.00947171)
(0.0257975 -0.000157423 -0.00428993)
(0.0263496 -0.000170283 -0.0025338)
(0.0262696 -0.000177001 -0.0015632)
(0.0264348 -0.000179551 -0.000939292)
(0.0263649 -0.000178378 -0.000523529)
(0.0258225 -0.000175484 -0.000176284)
(0.0247281 -0.00017316 0.000209468)
(0.0229089 -0.000173314 0.000728627)
(0.0200829 -0.000178222 0.00144374)
(0.0159623 -0.000190808 0.00228613)
(0.0103867 -0.000233503 0.00310216)
(0.00337156 -0.000276119 0.00312316)
(0.00638913 -3.9942e-05 -0.0278273)
(0.0201836 -8.18997e-05 -0.0094748)
(0.025814 -9.80086e-05 -0.00429175)
(0.0263732 -0.000101493 -0.0025358)
(0.0262963 -0.000102882 -0.00156554)
(0.0264642 -0.000103306 -0.000941453)
(0.0263962 -0.00010273 -0.000525195)
(0.0258543 -0.000103208 -0.000177428)
(0.0247597 -0.000107101 0.000208702)
(0.02294 -0.00011632 0.000727775)
(0.0201142 -0.000132989 0.00144241)
(0.0159937 -0.000159501 0.00228456)
(0.0104156 -0.000218837 0.00310196)
(0.00339062 -0.000283977 0.00312666)
(0.00639219 -1.76137e-05 -0.0278315)
(0.0201919 -3.95242e-05 -0.009478)
(0.025834 -4.17834e-05 -0.00429384)
(0.0263998 -3.65864e-05 -0.00253788)
(0.0263257 -3.29101e-05 -0.00156769)
(0.0264956 -3.11314e-05 -0.000943203)
(0.0264279 -3.09354e-05 -0.000526104)
(0.0258849 -3.44333e-05 -0.000177416)
(0.0247882 -4.38681e-05 0.000209419)
(0.0229666 -6.10754e-05 0.00072862)
(0.0201399 -8.7946e-05 0.00144269)
(0.0160192 -0.000126326 0.00228402)
(0.0104398 -0.000198685 0.00310196)
(0.00340732 -0.000280116 0.00312917)
(0.00639633 1.78194e-06 -0.0278358)
(0.0202036 -1.03839e-06 -0.00948168)
(0.0258564 9.11205e-06 -0.00429691)
(0.0264277 2.17171e-05 -0.00254058)
(0.0263562 2.98712e-05 -0.00157002)
(0.0265267 3.36763e-05 -0.000944654)
(0.0264578 3.36127e-05 -0.000526505)
(0.0259123 2.75872e-05 -0.000176535)
(0.0248121 1.35665e-05 0.000211319)
(0.0229873 -1.01722e-05 0.000730949)
(0.0201587 -4.53142e-05 0.00144445)
(0.0160373 -9.30355e-05 0.00228458)
(0.010458 -0.000174233 0.00310224)
(0.00341985 -0.000265741 0.0031306)
(0.00640124 1.81454e-05 -0.0278397)
(0.020218 3.19456e-05 -0.00948616)
(0.0258791 5.22881e-05 -0.00430129)
(0.026455 7.10408e-05 -0.00254436)
(0.0263857 8.29922e-05 -0.00157324)
(0.0265554 8.84559e-05 -0.00094669)
(0.0264842 8.81966e-05 -0.000527228)
(0.025935 8.02605e-05 -0.000175565)
(0.0248302 6.27942e-05 0.000213667)
(0.0230009 3.42277e-05 0.000734078)
(0.0201694 -7.00926e-06 0.0014473)
(0.0160471 -6.13407e-05 0.00228603)
(0.0104689 -0.000147155 0.00310273)
(0.00342828 -0.000242871 0.00313094)
(0.00640612 3.11792e-05 -0.0278443)
(0.0202332 5.77858e-05 -0.00949165)
(0.0259013 8.59601e-05 -0.00430624)
(0.026481 0.0001097 -0.00254828)
(0.0264133 0.000124665 -0.00157652)
(0.0265811 0.000131359 -0.000948793)
(0.0265065 0.000130958 -0.000528148)
(0.0259527 0.000121766 -0.000174778)
(0.0248424 0.0001021 0.00021608)
(0.0230077 7.04764e-05 0.000737597)
(0.0201725 2.55057e-05 0.00145094)
(0.0160489 -3.26559e-05 0.00228823)
(0.0104729 -0.000119152 0.00310337)
(0.00343277 -0.000213489 0.00313026)
(0.00641014 4.00594e-05 -0.0278501)
(0.0202472 7.52364e-05 -0.00949902)
(0.0259216 0.000108662 -0.00431249)
(0.0265045 0.000135869 -0.00255234)
(0.026438 0.000152889 -0.00157919)
(0.0266032 0.000160432 -0.000949852)
(0.0265247 0.000160056 -0.00052798)
(0.0259656 0.000150334 -0.000172876)
(0.0248492 0.000129731 0.00021958)
(0.0230083 9.68232e-05 0.000742258)
(0.0201686 5.04695e-05 0.00145584)
(0.0160432 -8.74533e-06 0.00229155)
(0.0104697 -9.2217e-05 0.00310438)
(0.00343298 -0.000179938 0.00312863)
(0.00641314 4.40947e-05 -0.027857)
(0.0202594 8.37758e-05 -0.00950848)
(0.0259388 0.000119796 -0.00432085)
(0.0265239 0.000148595 -0.00255815)
(0.0264579 0.000166573 -0.00158282)
(0.0266202 0.00017462 -0.000950822)
(0.0265374 0.00017458 -0.000526647)
(0.0259729 0.000165109 -0.000169221)
(0.0248501 0.00014472 0.000224795)
(0.0230027 0.000112131 0.000748584)
(0.020158 6.64891e-05 0.0014624)
(0.0160303 8.80586e-06 0.00229632)
(0.0104596 -6.84021e-05 0.00310595)
(0.00342878 -0.000145262 0.00312623)
(0.00641534 4.2814e-05 -0.027865)
(0.0202697 8.29573e-05 -0.00951925)
(0.0259529 0.000119056 -0.00433048)
(0.0265391 0.000147315 -0.00256549)
(0.0264728 0.000164555 -0.00158771)
(0.0266318 0.000172341 -0.000952583)
(0.0265446 0.000172888 -0.000525657)
(0.0259746 0.000164596 -0.000165527)
(0.0248454 0.000145648 0.000230157)
(0.0229912 0.000114914 0.000755333)
(0.0201412 7.19027e-05 0.00146974)
(0.016011 1.81534e-05 0.00230199)
(0.0104433 -5.0151e-05 0.00310781)
(0.00342086 -0.000112905 0.00312322)
(0.00641693 3.77914e-05 -0.0278741)
(0.0202781 7.5434e-05 -0.00953146)
(0.0259635 0.000110298 -0.00434138)
(0.0265494 0.000136663 -0.00257363)
(0.0264823 0.000151386 -0.00159331)
(0.0266386 0.000157509 -0.000955644)
(0.0265479 0.000158167 -0.00052702)
(0.0259724 0.00015137 -0.000164883)
(0.0248363 0.000134659 0.000232895)
(0.0229753 0.000107086 0.00076035)
(0.02012 6.86207e-05 0.00147631)
(0.0159874 2.12172e-05 0.00230742)
(0.0104233 -3.61729e-05 0.00310926)
(0.00341117 -8.29512e-05 0.00311953)
(0.00641854 2.7127e-05 -0.0278836)
(0.0202856 5.8083e-05 -0.00954425)
(0.0259718 8.81253e-05 -0.00435353)
(0.0265545 0.000110432 -0.00258306)
(0.0264843 0.000122964 -0.00160003)
(0.0266381 0.000128681 -0.000959352)
(0.026545 0.000129263 -0.000528454)
(0.0259648 0.000122135 -0.000164749)
(0.0248224 0.000106145 0.000234993)
(0.0229551 8.19287e-05 0.000764868)
(0.0200952 5.00854e-05 0.00148258)
(0.0159602 1.19371e-05 0.00231249)
(0.0103992 -3.26502e-05 0.00310952)
(0.00339769 -6.00324e-05 0.00311487)
(0.0064195 1.63376e-05 -0.0278917)
(0.0202901 5.47026e-05 -0.0095554)
(0.0259753 7.95051e-05 -0.00436328)
(0.0265565 8.84057e-05 -0.00258979)
(0.0264859 9.47576e-05 -0.00160412)
(0.0266377 0.000104124 -0.000960586)
(0.0265399 0.000107629 -0.000526803)
(0.025954 9.67059e-05 -0.000160016)
(0.0248072 7.52268e-05 0.000242712)
(0.0229372 5.04262e-05 0.000775106)
(0.0200753 2.57193e-05 0.00149375)
(0.0159381 2.25069e-07 0.00232093)
(0.0103782 -2.80791e-05 0.00311017)
(0.00338473 -3.39074e-05 0.00310903)
(0.00643436 -4.18834e-05 -0.0278986)
(0.0203095 1.70678e-05 -0.00956263)
(0.0259734 4.91805e-05 -0.00436124)
(0.0265482 4.04972e-05 -0.00257762)
(0.0264891 3.3571e-05 -0.00158819)
(0.0266462 4.78142e-05 -0.000945939)
(0.0265375 6.17781e-05 -0.000513855)
(0.0259369 5.23628e-05 -0.000145616)
(0.0247848 2.54009e-05 0.000260144)
(0.0229177 -4.28479e-06 0.000793851)
(0.020059 -2.76811e-05 0.00151022)
(0.0159186 -4.45471e-05 0.00233186)
(0.0103484 -6.21919e-05 0.00310903)
(0.00335 -4.28273e-05 0.00310351)
(0.00653491 -4.42582e-05 -0.0276478)
(0.020427 -9.18542e-06 -0.00930471)
(0.0260028 1.08131e-05 -0.00415311)
(0.0265488 -2.54843e-06 -0.0024094)
(0.0264989 -1.08953e-05 -0.00145052)
(0.0266703 2.00467e-06 -0.000834805)
(0.0265539 1.55859e-05 -0.00042658)
(0.0259317 1.11515e-05 -7.49103e-05)
(0.0247644 -6.43017e-06 0.000320809)
(0.0228941 -2.53351e-05 0.000848895)
(0.0200385 -3.76398e-05 0.0015605)
(0.0158872 -4.22531e-05 0.00237017)
(0.0102896 -4.39858e-05 0.00311164)
(0.00328037 -2.91306e-05 0.00310315)
(0.00145956 -0.000566008 -0.0187657)
(0.00827416 -0.000275258 0.000335568)
(0.0114737 -0.00020362 0.00272581)
(0.0120187 -0.000160063 0.00269719)
(0.0121503 2.06395e-05 0.00288763)
(0.0120426 0.000244785 0.00304837)
(0.0112844 0.000535589 0.00311755)
(0.00971001 0.000899079 0.00325067)
(0.00735352 0.00108943 0.00355962)
(0.00432997 0.000993881 0.00392065)
(0.000775072 0.000232086 0.00431511)
(-0.00218033 -0.00156967 0.00486842)
(-0.00224088 -0.00323784 0.00537891)
(-0.00114404 -0.0033116 0.00448162)
(0.000669148 -0.00153296 -0.0214179)
(0.0079394 -0.00138069 -0.00276212)
(0.0110571 -0.00105946 -0.000208188)
(0.0119475 -0.000802319 0.000465224)
(0.0130471 -0.000495386 0.00135454)
(0.0143592 -0.000111169 0.00199308)
(0.0153252 0.000345097 0.00249489)
(0.015757 0.000870309 0.00306901)
(0.0155349 0.00139924 0.00374639)
(0.0145305 0.0017631 0.00447601)
(0.0126465 0.00158873 0.0052138)
(0.0100903 0.000410611 0.00591145)
(0.00644132 -0.00240271 0.00689472)
(0.0022934 -0.00481286 0.00673399)
(0.000481938 -0.00152788 -0.0206181)
(0.00778052 -0.001633 -0.0021312)
(0.0105581 -0.00145182 -0.000315661)
(0.0111961 -0.00127463 -0.000135862)
(0.0121128 -0.00109377 0.0005911)
(0.0133281 -0.000898965 0.00119222)
(0.0143243 -0.000650826 0.00164713)
(0.0150002 -0.000317933 0.00219153)
(0.0153565 6.92649e-05 0.00290515)
(0.0152381 0.000388594 0.003763)
(0.014339 0.000326298 0.00475595)
(0.0122986 -0.000433337 0.00589115)
(0.00880829 -0.00202314 0.00730914)
(0.00340728 -0.00315136 0.00735822)
(0.00047327 -0.00151422 -0.0206146)
(0.00773803 -0.00182548 -0.0021091)
(0.0104146 -0.00167773 -0.000336839)
(0.0109718 -0.00146867 -0.000252916)
(0.0118276 -0.00129791 0.000355149)
(0.0129295 -0.00115837 0.000836908)
(0.0137767 -0.00101833 0.00119858)
(0.0142955 -0.000840751 0.00166244)
(0.0144934 -0.000615944 0.00235165)
(0.01424 -0.000381747 0.00329386)
(0.0132912 -0.000279036 0.00450924)
(0.0113107 -0.000512684 0.00598541)
(0.00792058 -0.00125818 0.00767687)
(0.00274106 -0.00168348 0.00767338)
(0.000504416 -0.00144634 -0.0207686)
(0.0077327 -0.00181938 -0.00231169)
(0.0103472 -0.00168902 -0.000537456)
(0.0108394 -0.00146487 -0.000473052)
(0.0116438 -0.00129087 9.94843e-05)
(0.0126577 -0.00116835 0.000541445)
(0.0134097 -0.00105961 0.000858502)
(0.0138411 -0.000930184 0.00128502)
(0.0139793 -0.000755733 0.00197167)
(0.0136889 -0.000551137 0.0030009)
(0.012694 -0.000411985 0.00441972)
(0.0106384 -0.000497649 0.00615735)
(0.00720361 -0.000908439 0.00798801)
(0.00229851 -0.0010422 0.00787422)
(0.000513907 -0.00135755 -0.0208291)
(0.00773098 -0.00171687 -0.00242098)
(0.0103379 -0.00159777 -0.000652793)
(0.0108086 -0.00137623 -0.000595135)
(0.0115871 -0.00120115 -3.3604e-05)
(0.0125576 -0.0010768 0.000391112)
(0.01327 -0.00096765 0.000675668)
(0.0136682 -0.00085237 0.00108047)
(0.0137963 -0.00071511 0.0017684)
(0.0135138 -0.000571886 0.00285504)
(0.0125144 -0.000486356 0.00439841)
(0.0104087 -0.000554587 0.00628258)
(0.00690948 -0.000831925 0.0081792)
(0.00210959 -0.000870815 0.00800753)
(0.000504938 -0.00123255 -0.0208205)
(0.00772472 -0.00156459 -0.00243631)
(0.0103499 -0.00144877 -0.000677211)
(0.0108308 -0.0012301 -0.000629707)
(0.0116078 -0.00105047 -7.93909e-05)
(0.0125683 -0.00091831 0.000331876)
(0.0132741 -0.000805211 0.00059777)
(0.0136704 -0.000699908 0.000989048)
(0.0138084 -0.000599119 0.00167478)
(0.0135425 -0.000522156 0.00278754)
(0.0125443 -0.000507203 0.00439113)
(0.0104054 -0.0006004 0.00635154)
(0.00684667 -0.000837807 0.00828955)
(0.00207952 -0.000856969 0.00810325)
(0.000502693 -0.00108314 -0.0208143)
(0.00772051 -0.00138906 -0.00243313)
(0.0103672 -0.00127942 -0.000678324)
(0.0108673 -0.00106573 -0.000635364)
(0.0116534 -0.000883578 -9.07358e-05)