/*--------------------------------*- C++ -*----------------------------------*\
| =========                 |                                                 |
| \\      /  F ield         | OpenFOAM: The Open Source CFD Toolbox           |
|  \\    /   O peration     | Version:  5.0                                   |
|   \\  /    A nd           | Web:      www.OpenFOAM.org                      |
|    \\/     M anipulation  |                                                 |
\*---------------------------------------------------------------------------*/
FoamFile
{
    version     2.0;
    format      ascii;
    class       volScalarField;
    location    "486";
    object      p;
}
// * * * * * * * * * * * * * * * * * * * * * * * * * * * * * * * * * * * * * //

dimensions      [0 2 -2 0 0 0 0];

internalField   nonuniform List<scalar> 
1568
(
1.63901e-19
2.86133e-18
5.10357e-18
6.50023e-18
7.69435e-18
8.74044e-18
9.6292e-18
1.04279e-17
1.11626e-17
1.18466e-17
1.24966e-17
1.31275e-17
1.37488e-17
1.43655e-17
1.49848e-17
1.56116e-17
1.62481e-17
1.68968e-17
1.75588e-17
1.82346e-17
1.8924e-17
1.96278e-17
2.03167e-17
2.083e-17
2.12241e-17
2.17393e-17
2.25758e-17
2.37839e-17
2.51554e-17
2.6367e-17
2.72078e-17
2.77273e-17
2.81211e-17
2.86306e-17
2.93181e-17
3.00221e-17
3.07106e-17
3.13867e-17
3.20482e-17
3.26965e-17
3.33328e-17
3.39595e-17
3.45783e-17
3.51955e-17
3.58156e-17
3.64465e-17
3.70978e-17
3.77821e-17
3.85135e-17
3.93132e-17
4.02098e-17
4.12422e-17
4.24322e-17
4.38472e-17
4.60739e-17
4.86337e-17
1.57367e-18
3.2419e-18
5.96751e-18
7.0819e-18
8.11691e-18
9.34323e-18
1.02129e-17
1.09945e-17
1.17628e-17
1.24602e-17
1.31016e-17
1.3725e-17
1.43438e-17
1.4946e-17
1.55472e-17
1.61524e-17
1.67623e-17
1.73803e-17
1.80091e-17
1.86501e-17
1.9304e-17
1.99723e-17
2.0673e-17
2.1463e-17
2.22482e-17
2.29641e-17
2.37006e-17
2.42803e-17
2.46702e-17
2.52536e-17
2.59885e-17
2.66998e-17
2.74767e-17
2.82715e-17
2.8973e-17
2.96452e-17
3.02931e-17
3.09386e-17
3.15647e-17
3.2182e-17
3.27934e-17
3.34025e-17
3.40006e-17
3.46043e-17
3.52145e-17
3.58426e-17
3.64964e-17
3.7187e-17
3.79232e-17
3.87434e-17
3.96632e-17
4.07118e-17
4.18761e-17
4.31386e-17
4.56852e-17
4.73749e-17
3.16772e-18
4.76557e-18
6.51753e-18
8.06963e-18
9.25919e-18
1.01961e-17
1.10846e-17
1.19666e-17
1.26858e-17
1.33285e-17
1.40155e-17
1.46386e-17
1.5205e-17
1.57875e-17
1.63657e-17
1.69232e-17
1.74921e-17
1.80651e-17
1.8644e-17
1.92232e-17
1.98147e-17
2.04098e-17
2.10129e-17
2.162e-17
2.21718e-17
2.27075e-17
2.33639e-17
2.41048e-17
2.48452e-17
2.55782e-17
2.62347e-17
2.678e-17
2.73431e-17
2.7948e-17
2.85432e-17
2.9133e-17
2.97339e-17
3.03055e-17
3.08857e-17
3.14608e-17
3.20209e-17
3.25732e-17
3.3154e-17
3.37278e-17
3.43213e-17
3.49343e-17
3.55759e-17
3.62595e-17
3.7011e-17
3.78263e-17
3.87081e-17
3.97224e-17
4.09779e-17
4.20878e-17
4.43274e-17
4.58078e-17
4.69301e-18
5.99392e-18
8.1197e-18
9.00774e-18
1.01063e-17
1.10944e-17
1.19471e-17
1.27478e-17
1.34664e-17
1.41314e-17
1.4743e-17
1.5319e-17
1.58937e-17
1.64533e-17
1.69816e-17
1.75209e-17
1.80565e-17
1.85858e-17
1.91169e-17
1.96641e-17
2.02084e-17
2.07573e-17
2.13052e-17
2.18585e-17
2.2392e-17
2.29446e-17
2.35315e-17
2.41582e-17
2.47912e-17
2.5422e-17
2.60128e-17
2.65533e-17
2.70797e-17
2.76289e-17
2.81869e-17
2.87337e-17
2.92791e-17
2.98236e-17
3.03548e-17
3.08874e-17
3.14266e-17
3.19699e-17
3.25049e-17
3.30525e-17
3.3619e-17
3.42062e-17
3.48207e-17
3.54934e-17
3.62043e-17
3.69583e-17
3.78749e-17
3.8892e-17
3.9878e-17
4.09032e-17
4.30105e-17
4.42622e-17
6.32523e-18
7.36382e-18
9.24385e-18
1.01143e-17
1.11336e-17
1.20711e-17
1.28832e-17
1.36108e-17
1.42749e-17
1.49176e-17
1.55025e-17
1.60588e-17
1.65953e-17
1.71045e-17
1.76071e-17
1.81085e-17
1.85996e-17
1.90939e-17
1.95891e-17
2.00846e-17
2.05827e-17
2.10871e-17
2.15957e-17
2.21107e-17
2.26229e-17
2.31454e-17
2.36753e-17
2.42083e-17
2.47387e-17
2.52726e-17
2.58039e-17
2.63302e-17
2.68457e-17
2.73591e-17
2.7869e-17
2.83725e-17
2.88658e-17
2.93643e-17
2.98581e-17
3.03477e-17
3.08366e-17
3.13311e-17
3.1832e-17
3.23508e-17
3.28807e-17
3.34385e-17
3.40306e-17
3.46471e-17
3.5319e-17
3.6091e-17
3.68782e-17
3.7717e-17
3.88158e-17
3.98351e-17
4.14707e-17
4.26124e-17
8.06745e-18
9.07155e-18
1.05592e-17
1.14762e-17
1.2341e-17
1.31542e-17
1.39251e-17
1.46057e-17
1.52162e-17
1.58058e-17
1.63546e-17
1.68688e-17
1.73589e-17
1.78367e-17
1.83055e-17
1.87567e-17
1.9204e-17
1.96528e-17
2.01013e-17
2.05453e-17
2.09952e-17
2.14489e-17
2.19029e-17
2.23583e-17
2.28181e-17
2.32784e-17
2.3752e-17
2.42349e-17
2.4718e-17
2.51982e-17
2.56693e-17
2.61309e-17
2.65918e-17
2.70477e-17
2.74973e-17
2.79498e-17
2.84008e-17
2.88462e-17
2.92937e-17
2.97427e-17
3.01914e-17
3.06454e-17
3.11117e-17
3.15849e-17
3.20781e-17
3.25929e-17
3.31297e-17
3.37226e-17
3.436e-17
3.49973e-17
3.5764e-17
3.66683e-17
3.74848e-17
3.82554e-17
3.99247e-17
4.08858e-17
9.85899e-18
1.07201e-17
1.20398e-17
1.2803e-17
1.35919e-17
1.43492e-17
1.50085e-17
1.56171e-17
1.62006e-17
1.67308e-17
1.72204e-17
1.76871e-17
1.8136e-17
1.85682e-17
1.89844e-17
1.93946e-17
1.9802e-17
2.02017e-17
2.05994e-17
2.10009e-17
2.14022e-17
2.18013e-17
2.22038e-17
2.26093e-17
2.30168e-17
2.34272e-17
2.3844e-17
2.42641e-17
2.46865e-17
2.51095e-17
2.55254e-17
2.5933e-17
2.63392e-17
2.67444e-17
2.71468e-17
2.75475e-17
2.79494e-17
2.83469e-17
2.87442e-17
2.91447e-17
2.955e-17
2.996e-17
3.03778e-17
3.08066e-17
3.12537e-17
3.1724e-17
3.2219e-17
3.27428e-17
3.33086e-17
3.3944e-17
3.4616e-17
3.52887e-17
3.61435e-17
3.69711e-17
3.82238e-17
3.90778e-17
1.17082e-17
1.24216e-17
1.35778e-17
1.42259e-17
1.49205e-17
1.55748e-17
1.61504e-17
1.66957e-17
1.72101e-17
1.76695e-17
1.811e-17
1.85322e-17
1.89299e-17
1.93094e-17
1.96789e-17
2.00422e-17
2.03984e-17
2.07498e-17
2.11001e-17
2.14499e-17
2.17987e-17
2.21492e-17
2.25018e-17
2.28559e-17
2.32103e-17
2.35691e-17
2.39302e-17
2.42932e-17
2.46573e-17
2.50194e-17
2.53821e-17
2.57424e-17
2.60961e-17
2.64492e-17
2.68034e-17
2.71527e-17
2.74996e-17
2.78495e-17
2.81992e-17
2.85503e-17
2.89047e-17
2.92645e-17
2.96334e-17
3.00158e-17
3.0412e-17
3.0827e-17
3.12638e-17
3.17378e-17
3.22454e-17
3.27678e-17
3.33632e-17
3.40506e-17
3.47087e-17
3.52869e-17
3.65136e-17
3.72267e-17
1.36054e-17
1.42087e-17
1.51867e-17
1.57308e-17
1.63077e-17
1.68533e-17
1.73667e-17
1.7837e-17
1.82639e-17
1.86686e-17
1.90529e-17
1.94088e-17
1.97504e-17
2.00814e-17
2.04009e-17
2.07111e-17
2.10147e-17
2.1317e-17
2.16169e-17
2.19127e-17
2.22097e-17
2.25099e-17
2.28075e-17
2.31065e-17
2.34083e-17
2.37114e-17
2.40158e-17
2.43228e-17
2.463e-17
2.49354e-17
2.524e-17
2.55426e-17
2.5844e-17
2.6143e-17
2.64404e-17
2.67378e-17
2.70346e-17
2.73316e-17
2.76303e-17
2.79311e-17
2.82352e-17
2.85457e-17
2.8865e-17
2.91931e-17
2.95323e-17
2.98926e-17
3.02739e-17
3.0674e-17
3.11035e-17
3.15787e-17
3.20887e-17
3.25971e-17
3.32144e-17
3.38045e-17
3.4714e-17
3.53226e-17
1.55396e-17
1.603e-17
1.68105e-17
1.72563e-17
1.7739e-17
1.81916e-17
1.86149e-17
1.8996e-17
1.9348e-17
1.96907e-17
2.00116e-17
2.03066e-17
2.05884e-17
2.08631e-17
2.11263e-17
2.13844e-17
2.16367e-17
2.1885e-17
2.21307e-17
2.23779e-17
2.26218e-17
2.2865e-17
2.31103e-17
2.33572e-17
2.36038e-17
2.38515e-17
2.41007e-17
2.43507e-17
2.46005e-17
2.48517e-17
2.51004e-17
2.53474e-17
2.55941e-17
2.58401e-17
2.60842e-17
2.63278e-17
2.65728e-17
2.68173e-17
2.70623e-17
2.731e-17
2.75616e-17
2.78183e-17
2.80811e-17
2.83534e-17
2.86354e-17
2.89331e-17
2.92462e-17
2.95858e-17
2.99497e-17
3.03186e-17
3.0739e-17
3.12052e-17
3.16819e-17
3.20834e-17
3.29057e-17
3.33893e-17
1.75006e-17
1.78816e-17
1.84811e-17
1.88358e-17
1.92103e-17
1.956e-17
1.9885e-17
2.01841e-17
2.04722e-17
2.07374e-17
2.09805e-17
2.12157e-17
2.14438e-17
2.16581e-17
2.18638e-17
2.20663e-17
2.22648e-17
2.24589e-17
2.2651e-17
2.2842e-17
2.30339e-17
2.32236e-17
2.3415e-17
2.36055e-17
2.37969e-17
2.39895e-17
2.41848e-17
2.43795e-17
2.45742e-17
2.47682e-17
2.49606e-17
2.51534e-17
2.53455e-17
2.55364e-17
2.57271e-17
2.59171e-17
2.61069e-17
2.62974e-17
2.64892e-17
2.66831e-17
2.68801e-17
2.70803e-17
2.72851e-17
2.75006e-17
2.77258e-17
2.79565e-17
2.82051e-17
2.84683e-17
2.87458e-17
2.9048e-17
2.9389e-17
2.97154e-17
3.00871e-17
3.04624e-17
3.10442e-17
3.1423e-17
1.94847e-17
1.97559e-17
2.01873e-17
2.04366e-17
2.07037e-17
2.09529e-17
2.11891e-17
2.1406e-17
2.16103e-17
2.17886e-17
2.19743e-17
2.21355e-17
2.22948e-17
2.24638e-17
2.26137e-17
2.27571e-17
2.28987e-17
2.30384e-17
2.31774e-17
2.33126e-17
2.34494e-17
2.35856e-17
2.37221e-17
2.38587e-17
2.39974e-17
2.41341e-17
2.427e-17
2.44052e-17
2.45426e-17
2.46812e-17
2.48203e-17
2.49575e-17
2.50932e-17
2.52286e-17
2.5364e-17
2.55009e-17
2.56356e-17
2.57713e-17
2.59088e-17
2.60474e-17
2.61883e-17
2.63325e-17
2.64803e-17
2.66478e-17
2.6806e-17
2.69666e-17
2.71503e-17
2.7326e-17
2.75364e-17
2.7748e-17
2.79687e-17
2.82252e-17
2.85166e-17
2.87324e-17
2.91695e-17
2.94389e-17
2.14824e-17
2.16468e-17
2.19073e-17
2.20541e-17
2.22163e-17
2.23659e-17
2.25108e-17
2.26428e-17
2.27587e-17
2.28412e-17
2.30483e-17
2.31589e-17
2.31527e-17
2.32829e-17
2.33689e-17
2.34525e-17
2.35388e-17
2.3622e-17
2.37041e-17
2.3786e-17
2.38661e-17
2.3948e-17
2.40281e-17
2.4108e-17
2.41881e-17
2.42697e-17
2.43525e-17
2.44375e-17
2.45202e-17
2.45996e-17
2.46797e-17
2.47608e-17
2.48417e-17
2.49232e-17
2.50033e-17
2.50823e-17
2.51636e-17
2.52449e-17
2.53258e-17
2.54079e-17
2.54927e-17
2.55759e-17
2.56613e-17
2.57889e-17
2.57823e-17
2.58925e-17
2.60953e-17
2.61813e-17
2.62918e-17
2.64131e-17
2.65837e-17
2.67218e-17
2.68529e-17
2.70163e-17
2.72811e-17
2.74388e-17
2.34909e-17
2.35473e-17
2.36347e-17
2.36865e-17
2.37432e-17
2.37911e-17
2.38413e-17
2.38889e-17
2.3943e-17
2.39667e-17
2.40298e-17
2.40452e-17
2.40481e-17
2.41343e-17
2.41347e-17
2.41525e-17
2.41812e-17
2.4207e-17
2.42318e-17
2.42586e-17
2.42848e-17
2.43101e-17
2.43356e-17
2.43624e-17
2.43876e-17
2.44137e-17
2.44381e-17
2.44623e-17
2.44877e-17
2.45141e-17
2.45397e-17
2.45654e-17
2.45902e-17
2.4615e-17
2.46412e-17
2.4665e-17
2.46911e-17
2.47159e-17
2.47403e-17
2.47667e-17
2.47934e-17
2.48084e-17
2.48099e-17
2.48941e-17
2.48951e-17
2.49111e-17
2.49702e-17
2.49903e-17
2.505e-17
2.51023e-17
2.51335e-17
2.51618e-17
2.52744e-17
2.53032e-17
2.53717e-17
2.54298e-17
2.55016e-17
2.54529e-17
2.53714e-17
2.53212e-17
2.52727e-17
2.52174e-17
2.51747e-17
2.51244e-17
2.50708e-17
2.50487e-17
2.49826e-17
2.49659e-17
2.49624e-17
2.48742e-17
2.48707e-17
2.48516e-17
2.48204e-17
2.47906e-17
2.47621e-17
2.47331e-17
2.4703e-17
2.46724e-17
2.46432e-17
2.46141e-17
2.45841e-17
2.45533e-17
2.45229e-17
2.44906e-17
2.44591e-17
2.44299e-17
2.43999e-17
2.43687e-17
2.43384e-17
2.43071e-17
2.42768e-17
2.42477e-17
2.42166e-17
2.41857e-17
2.41564e-17
2.41257e-17
2.40944e-17
2.40736e-17
2.40692e-17
2.39807e-17
2.39747e-17
2.39557e-17
2.38916e-17
2.3871e-17
2.38077e-17
2.37439e-17
2.37305e-17
2.36773e-17
2.35888e-17
2.35233e-17
2.34794e-17
2.34191e-17
2.75114e-17
2.73573e-17
2.71019e-17
2.6951e-17
2.68002e-17
2.66425e-17
2.65085e-17
2.63734e-17
2.62536e-17
2.61734e-17
2.59655e-17
2.58542e-17
2.58595e-17
2.57267e-17
2.5639e-17
2.55525e-17
2.54631e-17
2.53778e-17
2.52925e-17
2.52062e-17
2.51209e-17
2.50379e-17
2.49512e-17
2.48638e-17
2.47772e-17
2.4691e-17
2.46059e-17
2.45223e-17
2.44355e-17
2.43472e-17
2.42581e-17
2.41718e-17
2.40861e-17
2.40012e-17
2.39135e-17
2.38287e-17
2.37418e-17
2.36571e-17
2.35706e-17
2.3483e-17
2.33928e-17
2.33066e-17
2.32154e-17
2.30821e-17
2.30865e-17
2.29763e-17
2.27638e-17
2.26765e-17
2.25659e-17
2.24414e-17
2.22774e-17
2.20957e-17
2.20177e-17
2.18464e-17
2.15631e-17
2.14083e-17
2.95113e-17
2.92476e-17
2.88228e-17
2.8575e-17
2.83156e-17
2.80544e-17
2.78299e-17
2.761e-17
2.74053e-17
2.72285e-17
2.7039e-17
2.68769e-17
2.67172e-17
2.65455e-17
2.63954e-17
2.6247e-17
2.61032e-17
2.59598e-17
2.58194e-17
2.56781e-17
2.55393e-17
2.53976e-17
2.52586e-17
2.51183e-17
2.49791e-17
2.48355e-17
2.46918e-17
2.4545e-17
2.44029e-17
2.42594e-17
2.41192e-17
2.39763e-17
2.38346e-17
2.36918e-17
2.35525e-17
2.34106e-17
2.32712e-17
2.31287e-17
2.29873e-17
2.28434e-17
2.26984e-17
2.25491e-17
2.23983e-17
2.22256e-17
2.20638e-17
2.18988e-17
2.17104e-17
2.15383e-17
2.13201e-17
2.1086e-17
2.08972e-17
2.06424e-17
2.03208e-17
2.00658e-17
1.96866e-17
1.94096e-17
3.14996e-17
3.11296e-17
3.05263e-17
3.01756e-17
2.98143e-17
2.9451e-17
2.91328e-17
2.88291e-17
2.85438e-17
2.8281e-17
2.803e-17
2.77975e-17
2.75693e-17
2.73509e-17
2.71423e-17
2.69388e-17
2.67378e-17
2.65398e-17
2.63436e-17
2.61493e-17
2.59547e-17
2.57589e-17
2.55639e-17
2.5367e-17
2.51697e-17
2.49719e-17
2.47757e-17
2.45764e-17
2.4378e-17
2.41774e-17
2.39794e-17
2.378e-17
2.3584e-17
2.33865e-17
2.31925e-17
2.29949e-17
2.28009e-17
2.26036e-17
2.24083e-17
2.22084e-17
2.20077e-17
2.18002e-17
2.15932e-17
2.13714e-17
2.11437e-17
2.09124e-17
2.06565e-17
2.03824e-17
2.01178e-17
1.98198e-17
1.94585e-17
1.90797e-17
1.88069e-17
1.84321e-17
1.77888e-17
1.7421e-17
3.34655e-17
3.29806e-17
3.22077e-17
3.1752e-17
3.12862e-17
3.08242e-17
3.04139e-17
3.00261e-17
2.96651e-17
2.93318e-17
2.9009e-17
2.87105e-17
2.84254e-17
2.81522e-17
2.78827e-17
2.76263e-17
2.73668e-17
2.71198e-17
2.68648e-17
2.66211e-17
2.63661e-17
2.61242e-17
2.58683e-17
2.56242e-17
2.53652e-17
2.51194e-17
2.48562e-17
2.46086e-17
2.4344e-17
2.40969e-17
2.38328e-17
2.35879e-17
2.33277e-17
2.30852e-17
2.28256e-17
2.25853e-17
2.23276e-17
2.20857e-17
2.18265e-17
2.15816e-17
2.13175e-17
2.10638e-17
2.07892e-17
2.05187e-17
2.02284e-17
1.99277e-17
1.96047e-17
1.92877e-17
1.88977e-17
1.84877e-17
1.81466e-17
1.76846e-17
1.71258e-17
1.66683e-17
1.59582e-17
1.54581e-17
3.5406e-17
3.48091e-17
3.3848e-17
3.32906e-17
3.27193e-17
3.21543e-17
3.16616e-17
3.11911e-17
3.07558e-17
3.03511e-17
2.99699e-17
2.9607e-17
2.92667e-17
2.89319e-17
2.86129e-17
2.82955e-17
2.79912e-17
2.7683e-17
2.73846e-17
2.70779e-17
2.67812e-17
2.64749e-17
2.61752e-17
2.58667e-17
2.55649e-17
2.52525e-17
2.4946e-17
2.46303e-17
2.43216e-17
2.40057e-17
2.36989e-17
2.3387e-17
2.3083e-17
2.2774e-17
2.24733e-17
2.21684e-17
2.1868e-17
2.15641e-17
2.12631e-17
2.0956e-17
2.06483e-17
2.03338e-17
2.00129e-17
1.96774e-17
1.93318e-17
1.89768e-17
1.85915e-17
1.81658e-17
1.77471e-17
1.73245e-17
1.67481e-17
1.614e-17
1.57102e-17
1.51488e-17
1.41031e-17
1.3516e-17
3.73101e-17
3.65937e-17
3.54438e-17
3.47908e-17
3.41185e-17
3.34443e-17
3.28679e-17
3.23221e-17
3.18141e-17
3.13436e-17
3.09053e-17
3.04821e-17
3.00877e-17
2.96963e-17
2.9333e-17
2.89597e-17
2.86109e-17
2.82418e-17
2.79026e-17
2.75345e-17
2.71977e-17
2.68236e-17
2.64872e-17
2.61082e-17
2.57696e-17
2.53834e-17
2.50419e-17
2.46473e-17
2.43048e-17
2.39089e-17
2.35712e-17
2.318e-17
2.28485e-17
2.24623e-17
2.21351e-17
2.17476e-17
2.14226e-17
2.10408e-17
2.07131e-17
2.03283e-17
1.99948e-17
1.96017e-17
1.9251e-17
1.88449e-17
1.84695e-17
1.80263e-17
1.75926e-17
1.71283e-17
1.66346e-17
1.6006e-17
1.55012e-17
1.49133e-17
1.4088e-17
1.33848e-17
1.23631e-17
1.16195e-17
3.91701e-17
3.83237e-17
3.69993e-17
3.62101e-17
3.54497e-17
3.4694e-17
3.40213e-17
3.34101e-17
3.28351e-17
3.23107e-17
3.18048e-17
3.13426e-17
3.08867e-17
3.04629e-17
3.00283e-17
2.96275e-17
2.92065e-17
2.88187e-17
2.8396e-17
2.80126e-17
2.75857e-17
2.72032e-17
2.67713e-17
2.63842e-17
2.59465e-17
2.55555e-17
2.51059e-17
2.47054e-17
2.42479e-17
2.3849e-17
2.33964e-17
2.30076e-17
2.25651e-17
2.21809e-17
2.17428e-17
2.13668e-17
2.09358e-17
2.05533e-17
2.01249e-17
1.97444e-17
1.9314e-17
1.89212e-17
1.84795e-17
1.80624e-17
1.75909e-17
1.71339e-17
1.66344e-17
1.61026e-17
1.55041e-17
1.49531e-17
1.42687e-17
1.33712e-17
1.27651e-17
1.20321e-17
1.05924e-17
9.75649e-18
4.09761e-17
3.99957e-17
3.84605e-17
3.75737e-17
3.67036e-17
3.58576e-17
3.51126e-17
3.44338e-17
3.38002e-17
3.32204e-17
3.26689e-17
3.21576e-17
3.16529e-17
3.11838e-17
3.07063e-17
3.02625e-17
2.97911e-17
2.93591e-17
2.88871e-17
2.84589e-17
2.79787e-17
2.75512e-17
2.70593e-17
2.66324e-17
2.61322e-17
2.57029e-17
2.51837e-17
2.47411e-17
2.42091e-17
2.37689e-17
2.32406e-17
2.28201e-17
2.23069e-17
2.18943e-17
2.13843e-17
2.09803e-17
2.04698e-17
2.00718e-17
1.95744e-17
1.91707e-17
1.86659e-17
1.82576e-17
1.77459e-17
1.73067e-17
1.67734e-17
1.6297e-17
1.57052e-17
1.51525e-17
1.45104e-17
1.38242e-17
1.30404e-17
1.2315e-17
1.13694e-17
1.03793e-17
8.95047e-18
7.95983e-18
4.27166e-17
4.16071e-17
3.98404e-17
3.88878e-17
3.789e-17
3.69567e-17
3.61646e-17
3.54116e-17
3.47374e-17
3.41041e-17
3.35257e-17
3.29522e-17
3.24351e-17
3.18978e-17
3.14146e-17
3.08877e-17
3.04222e-17
2.98904e-17
2.94338e-17
2.8888e-17
2.84337e-17
2.78711e-17
2.7416e-17
2.68383e-17
2.63814e-17
2.57896e-17
2.53206e-17
2.47088e-17
2.42439e-17
2.36272e-17
2.31725e-17
2.25732e-17
2.21346e-17
2.15393e-17
2.11036e-17
2.05089e-17
2.00844e-17
1.95121e-17
1.90746e-17
1.85061e-17
1.80747e-17
1.75055e-17
1.70571e-17
1.64836e-17
1.59993e-17
1.53912e-17
1.48392e-17
1.41801e-17
1.35322e-17
1.27599e-17
1.19936e-17
1.10131e-17
1.00124e-17
9.1716e-18
7.3289e-18
6.21975e-18
4.43629e-17
4.30852e-17
4.10517e-17
4.00252e-17
3.89498e-17
3.79466e-17
3.70953e-17
3.63059e-17
3.55887e-17
3.49275e-17
3.43046e-17
3.37121e-17
3.31479e-17
3.25898e-17
3.20491e-17
3.15054e-17
3.09763e-17
3.04292e-17
2.98978e-17
2.93412e-17
2.88022e-17
2.82346e-17
2.76919e-17
2.71148e-17
2.65894e-17
2.60141e-17
2.54422e-17
2.47867e-17
2.41682e-17
2.35109e-17
2.2937e-17
2.23443e-17
2.18184e-17
2.12318e-17
2.07056e-17
2.01274e-17
1.96089e-17
1.90232e-17
1.85195e-17
1.7962e-17
1.74603e-17
1.68897e-17
1.63758e-17
1.57939e-17
1.52497e-17
1.4632e-17
1.4041e-17
1.33545e-17
1.26478e-17
1.18349e-17
1.10198e-17
1.00017e-17
8.93411e-18
7.85924e-18
5.85729e-18
4.58088e-18
4.59189e-17
4.44624e-17
4.21867e-17
4.10098e-17
3.98798e-17
3.88108e-17
3.78996e-17
3.70977e-17
3.63414e-17
3.56623e-17
3.50046e-17
3.44048e-17
3.37912e-17
3.32343e-17
3.26358e-17
3.2097e-17
3.14902e-17
3.09565e-17
3.03294e-17
2.97948e-17
2.91411e-17
2.86031e-17
2.79319e-17
2.73918e-17
2.6766e-17
2.6299e-17
2.55489e-17
2.48878e-17
2.40573e-17
2.34038e-17
2.26444e-17
2.22083e-17
2.1567e-17
2.10524e-17
2.03409e-17
1.98401e-17
1.91387e-17
1.8651e-17
1.79815e-17
1.74781e-17
1.68109e-17
1.63312e-17
1.56773e-17
1.51675e-17
1.45065e-17
1.39551e-17
1.32448e-17
1.26033e-17
1.18254e-17
1.10525e-17
1.00974e-17
9.04589e-18
7.9468e-18
6.74279e-18
4.49102e-18
3.03017e-18
4.74852e-17
4.5775e-17
4.32641e-17
4.19699e-17
4.08137e-17
3.97529e-17
3.88421e-17
3.80259e-17
3.72819e-17
3.65896e-17
3.59358e-17
3.53044e-17
3.46913e-17
3.40827e-17
3.34797e-17
3.28695e-17
3.22574e-17
3.16326e-17
3.10016e-17
3.03528e-17
2.96968e-17
2.90206e-17
2.83154e-17
2.75138e-17
2.67234e-17
2.60018e-17
2.52624e-17
2.4676e-17
2.42779e-17
2.36903e-17
2.29503e-17
2.22218e-17
2.14269e-17
2.06268e-17
1.9924e-17
1.92474e-17
1.85922e-17
1.79432e-17
1.7308e-17
1.66897e-17
1.60808e-17
1.54688e-17
1.48624e-17
1.42561e-17
1.36399e-17
1.30095e-17
1.23546e-17
1.16641e-17
1.09135e-17
1.01003e-17
9.19454e-18
8.13313e-18
6.96662e-18
5.68091e-18
3.17743e-18
1.46691e-18
4.87434e-17
4.61762e-17
4.39503e-17
4.25328e-17
4.134e-17
4.03062e-17
3.94093e-17
3.86073e-17
3.78736e-17
3.71874e-17
3.65342e-17
3.59002e-17
3.52778e-17
3.46571e-17
3.40349e-17
3.34039e-17
3.27645e-17
3.21104e-17
3.14451e-17
3.07632e-17
3.00703e-17
2.93593e-17
2.86681e-17
2.81516e-17
2.77534e-17
2.72267e-17
2.63823e-17
2.51628e-17
2.3786e-17
2.25678e-17
2.1726e-17
2.12008e-17
2.0803e-17
2.02837e-17
1.95924e-17
1.88798e-17
1.81874e-17
1.75037e-17
1.68383e-17
1.61826e-17
1.55434e-17
1.491e-17
1.42883e-17
1.36657e-17
1.30433e-17
1.24074e-17
1.17546e-17
1.10671e-17
1.0333e-17
9.52969e-18
8.6339e-18
7.60011e-18
6.40734e-18
4.99214e-18
2.76931e-18
2.06247e-19
)
;

boundaryField
{
    top
    {
        type            zeroGradient;
    }
    bottom
    {
        type            zeroGradient;
    }
    rotatingWall
    {
        type            zeroGradient;
    }
    wall
    {
        type            zeroGradient;
    }
    frontAndBack
    {
        type            empty;
    }
}


// ************************************************************************* //
