/*--------------------------------*- C++ -*----------------------------------*\
| =========                 |                                                 |
| \\      /  F ield         | OpenFOAM: The Open Source CFD Toolbox           |
|  \\    /   O peration     | Version:  5.0                                   |
|   \\  /    A nd           | Web:      www.OpenFOAM.org                      |
|    \\/     M anipulation  |                                                 |
\*---------------------------------------------------------------------------*/
FoamFile
{
    version     2.0;
    format      ascii;
    class       volScalarField;
    location    "0.4";
    object      p;
}
// * * * * * * * * * * * * * * * * * * * * * * * * * * * * * * * * * * * * * //

dimensions      [0 2 -2 0 0 0 0];

internalField   nonuniform List<scalar> 
50
(
5.79163e-10
6.03213e-10
2.97547e-10
2.94281e-10
3.47513e-11
5.78713e-10
6.02324e-10
2.97304e-10
2.94457e-10
3.45893e-11
5.80697e-10
6.03158e-10
2.96779e-10
2.94891e-10
3.41922e-11
5.83317e-10
6.04963e-10
2.96378e-10
2.95239e-10
3.387e-11
5.84954e-10
6.06274e-10
2.96175e-10
2.95418e-10
3.36954e-11
5.8501e-10
6.06371e-10
2.96138e-10
2.95449e-10
3.36519e-11
5.83456e-10
6.05219e-10
2.96267e-10
2.95324e-10
3.3746e-11
5.8084e-10
6.03481e-10
2.96605e-10
2.95024e-10
3.40005e-11
5.78729e-10
6.02561e-10
2.97081e-10
2.94624e-10
3.43504e-11
5.78958e-10
6.03253e-10
2.97288e-10
2.9447e-10
3.44844e-11
)
;

boundaryField
{
    top
    {
        type            zeroGradient;
    }
    bottom
    {
        type            zeroGradient;
    }
    inlet
    {
        type            fixedValue;
        value           uniform 0;
    }
    outlet
    {
        type            fixedValue;
        value           nonuniform 0();
    }
    frontAndBack
    {
        type            empty;
    }
    procBoundary0to1
    {
        type            processor;
        value           nonuniform List<scalar> 10(5.85584e-12 6.00081e-12 6.37107e-12 6.65706e-12 6.78987e-12 6.78899e-12 6.65432e-12 6.36729e-12 5.99631e-12 5.85078e-12);
    }
}


// ************************************************************************* //
