/*--------------------------------*- C++ -*----------------------------------*\
| =========                 |                                                 |
| \\      /  F ield         | OpenFOAM: The Open Source CFD Toolbox           |
|  \\    /   O peration     | Version:  5.0                                   |
|   \\  /    A nd           | Web:      www.OpenFOAM.org                      |
|    \\/     M anipulation  |                                                 |
\*---------------------------------------------------------------------------*/
FoamFile
{
    version     2.0;
    format      ascii;
    class       volVectorField;
    location    "0.4";
    object      U;
}
// * * * * * * * * * * * * * * * * * * * * * * * * * * * * * * * * * * * * * //

dimensions      [0 1 -1 0 0 0 0];

internalField   nonuniform List<vector> 
50
(
(0.005 -2.01208e-13 -2.0938e-34)
(0.005 -1.0807e-13 -6.07858e-34)
(0.005 3.37526e-14 -1.02136e-34)
(0.005 -2.94852e-14 -1.82643e-34)
(0.005 2.64801e-14 7.50856e-35)
(0.015 -5.83057e-13 3.34834e-46)
(0.015 -3.30288e-13 2.31787e-34)
(0.015 9.14289e-14 7.85534e-34)
(0.015 -8.15601e-14 -8.92203e-34)
(0.015 7.3243e-14 -2.95042e-34)
(0.025 -8.04566e-13 1.60687e-33)
(0.025 -4.95614e-13 -5.39886e-33)
(0.025 1.09567e-13 3.15306e-34)
(0.025 -1.00213e-13 -5.37164e-34)
(0.025 8.98725e-14 -5.90215e-34)
(0.035 -7.11688e-13 1.14782e-33)
(0.035 -4.71502e-13 -6.07951e-33)
(0.035 8.28416e-14 -6.33591e-34)
(0.035 -7.87522e-14 8.10531e-34)
(0.035 7.04231e-14 1.09847e-33)
(0.045 -3.11448e-13 -6.71593e-33)
(0.045 -2.23946e-13 3.1755e-33)
(0.045 2.85815e-14 -9.53858e-34)
(0.045 -2.90418e-14 -6.97878e-34)
(0.045 2.59168e-14 8.13463e-34)
(0.055 1.98148e-13 3.23611e-33)
(0.055 1.0913e-13 -2.45226e-33)
(0.055 -3.33919e-14 7.30021e-34)
(0.055 2.90183e-14 9.69132e-35)
(0.055 -2.60618e-14 -2.9525e-34)
(0.065 6.18977e-13 2.25192e-46)
(0.065 3.77816e-13 2.95534e-33)
(0.065 -8.68106e-14 4.77577e-34)
(0.065 7.86219e-14 -8.68548e-34)
(0.065 -7.04862e-14 3.56518e-34)
(0.075 7.46635e-13 6.46666e-33)
(0.075 4.37281e-13 2.13742e-33)
(0.075 -1.12039e-13 -3.155e-34)
(0.075 1.00667e-13 1.43043e-33)
(0.075 -9.02268e-14 8.85742e-34)
(0.085 5.57998e-13 -1.93362e-33)
(0.085 3.05205e-13 -5.21621e-34)
(0.085 -9.23684e-14 3.14968e-34)
(0.085 8.15275e-14 5.66888e-34)
(0.085 -7.32065e-14 4.95014e-34)
(0.095 1.95348e-13 1.08791e-33)
(0.095 1.02589e-13 1.24783e-34)
(0.095 -3.432e-14 2.14605e-34)
(0.095 2.99616e-14 -2.54289e-34)
(0.095 -2.69241e-14 6.21059e-35)
)
;

boundaryField
{
    top
    {
        type            fixedValue;
        value           uniform (0.1 0 0);
    }
    bottom
    {
        type            fixedValue;
        value           uniform (0 0 0);
    }
    inlet
    {
        type            zeroGradient;
    }
    outlet
    {
        type            zeroGradient;
    }
    frontAndBack
    {
        type            empty;
    }
    procBoundary0to1
    {
        type            processor;
        value           nonuniform List<vector> 10((0.005 -2.66816e-14 4.00489e-34) (0.015 -7.30939e-14 2.32299e-34) (0.025 -8.9865e-14 -3.76538e-34) (0.035 -7.03829e-14 1.61007e-34) (0.045 -2.59585e-14 5.89277e-34) (0.055 2.58673e-14 9.81338e-46) (0.065 7.02975e-14 1.36833e-34) (0.075 8.98833e-14 1.34607e-33) (0.085 7.30876e-14 -5.28304e-34) (0.095 2.67126e-14 1.32562e-34));
    }
}


// ************************************************************************* //
