/*--------------------------------*- C++ -*----------------------------------*\
| =========                 |                                                 |
| \\      /  F ield         | OpenFOAM: The Open Source CFD Toolbox           |
|  \\    /   O peration     | Version:  5.0                                   |
|   \\  /    A nd           | Web:      www.OpenFOAM.org                      |
|    \\/     M anipulation  |                                                 |
\*---------------------------------------------------------------------------*/
FoamFile
{
    version     2.0;
    format      ascii;
    class       volScalarField;
    location    "520";
    object      p;
}
// * * * * * * * * * * * * * * * * * * * * * * * * * * * * * * * * * * * * * //

dimensions      [0 2 -2 0 0 0 0];

internalField   nonuniform List<scalar> 
1568
(
1.62169e-19
1.06919e-18
1.73849e-18
2.15398e-18
2.50596e-18
2.81247e-18
3.07479e-18
3.30971e-18
3.52527e-18
3.72612e-18
3.91698e-18
4.10205e-18
4.28407e-18
4.46482e-18
4.64624e-18
4.82975e-18
5.01609e-18
5.20593e-18
5.39965e-18
5.59736e-18
5.79899e-18
6.00484e-18
6.20629e-18
6.35623e-18
6.47147e-18
6.62215e-18
6.86682e-18
7.22011e-18
7.62128e-18
7.97548e-18
8.22124e-18
8.37295e-18
8.48809e-18
8.63693e-18
8.83791e-18
9.04366e-18
9.24497e-18
9.44253e-18
9.63592e-18
9.82544e-18
1.00114e-17
1.01946e-17
1.03755e-17
1.05559e-17
1.07372e-17
1.09216e-17
1.1112e-17
1.1312e-17
1.1526e-17
1.17599e-17
1.2022e-17
1.2324e-17
1.26722e-17
1.30863e-17
1.37374e-17
1.44865e-17
6.90411e-19
1.19586e-18
1.96993e-18
2.31984e-18
2.64123e-18
2.98293e-18
3.24391e-18
3.47696e-18
3.69986e-18
3.90408e-18
4.09345e-18
4.27669e-18
4.45748e-18
4.63409e-18
4.81017e-18
4.98728e-18
5.16585e-18
5.34673e-18
5.53073e-18
5.71823e-18
5.90957e-18
6.10503e-18
6.3102e-18
6.54128e-18
6.77125e-18
6.98023e-18
7.19571e-18
7.36493e-18
7.47949e-18
7.64918e-18
7.8643e-18
8.07227e-18
8.30064e-18
8.53261e-18
8.73785e-18
8.93383e-18
9.12392e-18
9.31198e-18
9.4953e-18
9.67575e-18
9.85429e-18
1.00317e-17
1.02068e-17
1.03833e-17
1.05618e-17
1.07453e-17
1.09364e-17
1.11382e-17
1.13542e-17
1.15932e-17
1.18611e-17
1.21694e-17
1.25095e-17
1.28812e-17
1.36221e-17
1.41181e-17
1.1702e-18
1.62321e-18
2.19637e-18
2.61178e-18
2.95581e-18
3.24187e-18
3.50642e-18
3.75858e-18
3.9717e-18
4.16513e-18
4.36228e-18
4.54376e-18
4.7123e-18
4.88258e-18
5.05112e-18
5.21528e-18
5.38164e-18
5.54913e-18
5.71821e-18
5.88803e-18
6.06092e-18
6.23485e-18
6.41051e-18
6.58829e-18
6.74867e-18
6.90574e-18
7.09753e-18
7.31422e-18
7.5298e-18
7.74509e-18
7.93698e-18
8.09575e-18
8.25795e-18
8.43518e-18
8.60924e-18
8.78207e-18
8.95659e-18
9.12472e-18
9.29382e-18
9.46148e-18
9.6259e-18
9.78883e-18
9.95745e-18
1.01255e-17
1.02986e-17
1.04779e-17
1.06655e-17
1.08655e-17
1.10845e-17
1.13228e-17
1.15827e-17
1.1884e-17
1.22389e-17
1.25681e-17
1.32286e-17
1.36602e-17
1.62371e-18
2.00117e-18
2.61139e-18
2.88938e-18
3.20831e-18
3.50102e-18
3.75334e-18
3.98556e-18
4.1962e-18
4.39153e-18
4.57172e-18
4.74185e-18
4.90959e-18
5.07255e-18
5.2284e-18
5.38588e-18
5.54242e-18
5.6978e-18
5.85383e-18
6.01329e-18
6.17275e-18
6.33353e-18
6.49438e-18
6.65619e-18
6.81276e-18
6.97418e-18
7.14602e-18
7.32926e-18
7.51464e-18
7.69867e-18
7.8713e-18
8.03049e-18
8.18569e-18
8.34669e-18
8.50929e-18
8.66945e-18
8.82891e-18
8.98768e-18
9.14346e-18
9.29907e-18
9.45593e-18
9.61373e-18
9.77049e-18
9.93074e-18
1.00963e-17
1.0268e-17
1.04482e-17
1.06439e-17
1.08522e-17
1.10752e-17
1.13379e-17
1.16338e-17
1.19305e-17
1.22341e-17
1.2838e-17
1.32076e-17
2.10421e-18
2.41766e-18
2.95513e-18
3.2193e-18
3.5152e-18
3.78985e-18
4.02728e-18
4.24142e-18
4.43836e-18
4.62546e-18
4.79688e-18
4.96006e-18
5.11708e-18
5.26686e-18
5.41429e-18
5.56075e-18
5.7047e-18
5.84917e-18
5.99391e-18
6.13888e-18
6.28471e-18
6.4321e-18
6.58067e-18
6.73095e-18
6.88087e-18
7.03336e-18
7.18827e-18
7.34424e-18
7.49949e-18
7.65555e-18
7.81058e-18
7.96375e-18
8.1142e-18
8.26405e-18
8.41271e-18
8.55979e-18
8.70448e-18
8.84988e-18
8.99412e-18
9.13745e-18
9.28078e-18
9.42553e-18
9.57223e-18
9.72356e-18
9.87863e-18
1.00415e-17
1.02141e-17
1.03951e-17
1.05923e-17
1.08149e-17
1.10467e-17
1.13007e-17
1.16103e-17
1.19033e-17
1.23943e-17
1.27261e-17
2.61405e-18
2.90516e-18
3.34579e-18
3.61039e-18
3.86674e-18
4.10749e-18
4.33064e-18
4.53086e-18
4.71219e-18
4.88416e-18
5.04469e-18
5.19573e-18
5.33962e-18
5.4794e-18
5.61627e-18
5.7488e-18
5.88008e-18
6.01137e-18
6.14252e-18
6.27284e-18
6.40447e-18
6.53702e-18
6.66983e-18
6.80319e-18
6.93755e-18
7.07238e-18
7.21083e-18
7.35183e-18
7.49298e-18
7.63346e-18
7.77141e-18
7.90643e-18
8.04084e-18
8.1742e-18
8.30605e-18
8.43827e-18
8.56994e-18
8.70026e-18
8.83094e-18
8.962e-18
9.09322e-18
9.22595e-18
9.36193e-18
9.50043e-18
9.6445e-18
9.79503e-18
9.95274e-18
1.0125e-17
1.03105e-17
1.05011e-17
1.07228e-17
1.09812e-17
1.12269e-17
1.14616e-17
1.19375e-17
1.22206e-17
3.13968e-18
3.38997e-18
3.77904e-18
4.0022e-18
4.23289e-18
4.45429e-18
4.64869e-18
4.82819e-18
4.99801e-18
5.15326e-18
5.29755e-18
5.43474e-18
5.56621e-18
5.69276e-18
5.81496e-18
5.93513e-18
6.05418e-18
6.17132e-18
6.28791e-18
6.40526e-18
6.52259e-18
6.63962e-18
6.75754e-18
6.87619e-18
6.99537e-18
7.11547e-18
7.2374e-18
7.3604e-18
7.48396e-18
7.60755e-18
7.72932e-18
7.84883e-18
7.96769e-18
8.0862e-18
8.20394e-18
8.32112e-18
8.43838e-18
8.55472e-18
8.67101e-18
8.78804e-18
8.90635e-18
9.02613e-18
9.14827e-18
9.27376e-18
9.4044e-18
9.54173e-18
9.68655e-18
9.84002e-18
1.00058e-17
1.01898e-17
1.03857e-17
1.05902e-17
1.0833e-17
1.10683e-17
1.14436e-17
1.16928e-17
3.68173e-18
3.89131e-18
4.22953e-18
4.4196e-18
4.6219e-18
4.81417e-18
4.98428e-18
5.14412e-18
5.29392e-18
5.42968e-18
5.55902e-18
5.68228e-18
5.79874e-18
5.91024e-18
6.01867e-18
6.12501e-18
6.22929e-18
6.33231e-18
6.43487e-18
6.53724e-18
6.63939e-18
6.74196e-18
6.84506e-18
6.94861e-18
7.05237e-18
7.15724e-18
7.26285e-18
7.36906e-18
7.47549e-18
7.58145e-18
7.68728e-18
7.79239e-18
7.89593e-18
7.99918e-18
8.10244e-18
8.20459e-18
8.30621e-18
8.40841e-18
8.51065e-18
8.61331e-18
8.71702e-18
8.82236e-18
8.93026e-18
9.04198e-18
9.1578e-18
9.27915e-18
9.40723e-18
9.5453e-18
9.69335e-18
9.84814e-18
1.00213e-17
1.02193e-17
1.04141e-17
1.0591e-17
1.09417e-17
1.11513e-17
4.23703e-18
4.41363e-18
4.69826e-18
4.85859e-18
5.02797e-18
5.1893e-18
5.33867e-18
5.4762e-18
5.60214e-18
5.72094e-18
5.8334e-18
5.93808e-18
6.03825e-18
6.13524e-18
6.22889e-18
6.31985e-18
6.40897e-18
6.49748e-18
6.58525e-18
6.67209e-18
6.75911e-18
6.84679e-18
6.934e-18
7.02163e-18
7.10993e-18
7.19863e-18
7.28777e-18
7.37755e-18
7.46744e-18
7.55691e-18
7.64604e-18
7.73457e-18
7.8227e-18
7.9102e-18
7.99726e-18
8.08425e-18
8.17108e-18
8.25794e-18
8.34524e-18
8.43319e-18
8.52212e-18
8.61285e-18
8.70607e-18
8.80211e-18
8.90143e-18
9.0066e-18
9.11801e-18
9.23526e-18
9.36129e-18
9.49945e-18
9.64746e-18
9.80121e-18
9.97759e-18
1.01466e-17
1.04176e-17
1.05952e-17
4.80307e-18
4.94645e-18
5.17497e-18
5.3062e-18
5.4468e-18
5.58012e-18
5.70309e-18
5.81538e-18
5.91963e-18
6.01952e-18
6.11343e-18
6.20035e-18
6.28308e-18
6.3636e-18
6.44093e-18
6.51654e-18
6.59054e-18
6.66338e-18
6.73547e-18
6.80771e-18
6.87926e-18
6.95068e-18
7.02252e-18
7.09474e-18
7.16699e-18
7.23957e-18
7.31255e-18
7.38576e-18
7.45895e-18
7.53241e-18
7.60527e-18
7.67766e-18
7.74985e-18
7.82178e-18
7.89327e-18
7.9646e-18
8.03619e-18
8.10769e-18
8.17942e-18
8.2519e-18
8.32548e-18
8.40053e-18
8.47746e-18
8.55714e-18
8.6395e-18
8.72654e-18
8.81862e-18
8.91745e-18
9.02337e-18
9.13283e-18
9.25494e-18
9.39064e-18
9.52935e-18
9.65171e-18
9.88804e-18
1.00301e-17
5.37678e-18
5.48812e-18
5.66424e-18
5.76765e-18
5.87671e-18
5.98016e-18
6.07526e-18
6.16348e-18
6.24775e-18
6.32538e-18
6.39732e-18
6.46612e-18
6.53298e-18
6.59608e-18
6.65651e-18
6.71591e-18
6.7741e-18
6.83112e-18
6.88752e-18
6.9436e-18
6.99977e-18
7.0555e-18
7.11158e-18
7.16752e-18
7.22367e-18
7.28015e-18
7.33719e-18
7.39417e-18
7.45114e-18
7.50795e-18
7.5644e-18
7.62086e-18
7.67706e-18
7.73295e-18
7.78877e-18
7.8444e-18
7.89999e-18
7.95578e-18
8.01192e-18
8.06865e-18
8.12629e-18
8.18495e-18
8.24491e-18
8.30794e-18
8.37387e-18
8.44135e-18
8.51402e-18
8.59092e-18
8.67261e-18
8.76107e-18
8.85873e-18
8.95735e-18
9.06562e-18
9.17305e-18
9.34482e-18
9.45568e-18
5.95711e-18
6.03623e-18
6.1626e-18
6.23566e-18
6.31354e-18
6.38752e-18
6.45635e-18
6.52022e-18
6.58024e-18
6.63252e-18
6.68731e-18
6.73474e-18
6.78167e-18
6.83132e-18
6.87522e-18
6.91758e-18
6.95929e-18
7.00032e-18
7.04106e-18
7.08098e-18
7.1211e-18
7.1611e-18
7.20112e-18
7.24122e-18
7.28172e-18
7.3219e-18
7.36198e-18
7.40196e-18
7.44234e-18
7.48292e-18
7.52352e-18
7.56371e-18
7.60358e-18
7.64333e-18
7.68305e-18
7.72303e-18
7.76259e-18
7.8024e-18
7.84265e-18
7.88322e-18
7.92454e-18
7.96677e-18
8.00995e-18
8.05905e-18
8.10542e-18
8.15233e-18
8.20636e-18
8.25774e-18
8.31864e-18
8.38114e-18
8.44647e-18
8.52161e-18
8.60361e-18
8.66989e-18
8.7973e-18
8.87588e-18
6.54128e-18
6.58925e-18
6.66541e-18
6.70879e-18
6.75604e-18
6.80056e-18
6.84246e-18
6.8815e-18
6.91598e-18
6.94015e-18
7.00102e-18
7.03378e-18
7.03208e-18
7.07047e-18
7.0959e-18
7.12065e-18
7.14611e-18
7.17067e-18
7.1949e-18
7.21904e-18
7.24281e-18
7.26687e-18
7.29061e-18
7.3143e-18
7.33803e-18
7.36206e-18
7.38629e-18
7.41095e-18
7.43518e-18
7.45881e-18
7.48255e-18
7.50641e-18
7.53022e-18
7.5541e-18
7.57769e-18
7.60106e-18
7.62486e-18
7.64872e-18
7.6725e-18
7.69662e-18
7.72157e-18
7.74596e-18
7.77096e-18
7.80863e-18
7.80644e-18
7.83872e-18
7.89852e-18
7.92298e-18
7.95603e-18
7.99274e-18
8.03921e-18
8.08122e-18
8.12216e-18
8.1689e-18
8.24479e-18
8.29148e-18
7.12854e-18
7.14501e-18
7.17073e-18
7.1859e-18
7.20229e-18
7.217e-18
7.23148e-18
7.24585e-18
7.26203e-18
7.26904e-18
7.28793e-18
7.2927e-18
7.29365e-18
7.31931e-18
7.31978e-18
7.32512e-18
7.33368e-18
7.34155e-18
7.34917e-18
7.35717e-18
7.36503e-18
7.37269e-18
7.38038e-18
7.38829e-18
7.3959e-18
7.4037e-18
7.41118e-18
7.4186e-18
7.42624e-18
7.43403e-18
7.44167e-18
7.44933e-18
7.45678e-18
7.46422e-18
7.47192e-18
7.47916e-18
7.48686e-18
7.49429e-18
7.50162e-18
7.50938e-18
7.51733e-18
7.52188e-18
7.52227e-18
7.5473e-18
7.54757e-18
7.5521e-18
7.56993e-18
7.57589e-18
7.59279e-18
7.60779e-18
7.61826e-18
7.62909e-18
7.6555e-18
7.66592e-18
7.68816e-18
7.7046e-18
7.71638e-18
7.70205e-18
7.67821e-18
7.66372e-18
7.64925e-18
7.63386e-18
7.62116e-18
7.60684e-18
7.59145e-18
7.5851e-18
7.56613e-18
7.56157e-18
7.56082e-18
7.53523e-18
7.53454e-18
7.52924e-18
7.52047e-18
7.51208e-18
7.50394e-18
7.49566e-18
7.48718e-18
7.47857e-18
7.47022e-18
7.46186e-18
7.45329e-18
7.44458e-18
7.43592e-18
7.42689e-18
7.41797e-18
7.40949e-18
7.40083e-18
7.39199e-18
7.38328e-18
7.37443e-18
7.36574e-18
7.35728e-18
7.34844e-18
7.33965e-18
7.33116e-18
7.32238e-18
7.31334e-18
7.30747e-18
7.30635e-18
7.28037e-18
7.27889e-18
7.27359e-18
7.25471e-18
7.24843e-18
7.23077e-18
7.21351e-18
7.20609e-18
7.19088e-18
7.16844e-18
7.15142e-18
7.13352e-18
7.11693e-18
8.30387e-18
8.25842e-18
8.18409e-18
8.14029e-18
8.09561e-18
8.05034e-18
8.01081e-18
7.97171e-18
7.93708e-18
7.91375e-18
7.85311e-18
7.82082e-18
7.82287e-18
7.78428e-18
7.75888e-18
7.7339e-18
7.70809e-18
7.68336e-18
7.65871e-18
7.63386e-18
7.60923e-18
7.58504e-18
7.56013e-18
7.53505e-18
7.51009e-18
7.48514e-18
7.46032e-18
7.43576e-18
7.41059e-18
7.38517e-18
7.35962e-18
7.33461e-18
7.3097e-18
7.28501e-18
7.25977e-18
7.2351e-18
7.21001e-18
7.18532e-18
7.16021e-18
7.13485e-18
7.10866e-18
7.08352e-18
7.05718e-18
7.01819e-18
7.01985e-18
6.98748e-18
6.92564e-18
6.90068e-18
6.86748e-18
6.83019e-18
6.78464e-18
6.73458e-18
6.70308e-18
6.65515e-18
6.57553e-18
6.52967e-18
8.88853e-18
8.81141e-18
8.68712e-18
8.61469e-18
8.53854e-18
8.46315e-18
8.39695e-18
8.33307e-18
8.27353e-18
8.22193e-18
8.1669e-18
8.11987e-18
8.07328e-18
8.02347e-18
7.97989e-18
7.93687e-18
7.89503e-18
7.85349e-18
7.81269e-18
7.77175e-18
7.73136e-18
7.69036e-18
7.64987e-18
7.60904e-18
7.56843e-18
7.52685e-18
7.48529e-18
7.44301e-18
7.40167e-18
7.35996e-18
7.319e-18
7.27747e-18
7.2363e-18
7.19491e-18
7.1543e-18
7.11311e-18
7.07246e-18
7.03112e-18
6.98995e-18
6.94812e-18
6.90583e-18
6.86239e-18
6.81848e-18
6.76817e-18
6.72093e-18
6.67303e-18
6.61803e-18
6.56703e-18
6.50458e-18
6.43777e-18
6.37808e-18
6.30359e-18
6.2154e-18
6.14202e-18
6.02507e-18
5.94539e-18
9.46966e-18
9.36098e-18
9.18496e-18
9.0827e-18
8.97641e-18
8.87118e-18
8.77768e-18
8.68928e-18
8.60625e-18
8.5294e-18
8.45643e-18
8.38872e-18
8.32223e-18
8.25872e-18
8.19808e-18
8.13882e-18
8.08039e-18
8.02287e-18
7.96584e-18
7.9093e-18
7.85269e-18
7.79587e-18
7.73915e-18
7.68202e-18
7.62466e-18
7.56716e-18
7.50984e-18
7.45188e-18
7.39403e-18
7.3358e-18
7.2781e-18
7.22023e-18
7.16308e-18
7.10572e-18
7.04907e-18
6.99177e-18
6.93516e-18
6.87787e-18
6.82084e-18
6.76276e-18
6.70422e-18
6.64396e-18
6.58339e-18
6.51897e-18
6.45239e-18
6.38465e-18
6.31038e-18
6.23112e-18
6.15197e-18
6.06424e-18
5.96219e-18
5.85402e-18
5.76389e-18
5.65663e-18
5.47331e-18
5.36461e-18
1.00443e-17
9.90258e-18
9.67607e-18
9.54343e-18
9.40645e-18
9.27218e-18
9.15186e-18
9.03887e-18
8.93374e-18
8.83616e-18
8.74226e-18
8.6552e-18
8.57228e-18
8.49247e-18
8.41427e-18
8.33929e-18
8.26416e-18
8.19181e-18
8.11807e-18
8.04669e-18
7.97306e-18
7.90202e-18
7.82811e-18
7.7565e-18
7.68179e-18
7.60957e-18
7.53374e-18
7.46094e-18
7.38467e-18
7.31196e-18
7.23593e-18
7.16387e-18
7.08881e-18
7.01744e-18
6.94268e-18
6.87187e-18
6.79755e-18
6.72638e-18
6.65162e-18
6.57955e-18
6.50329e-18
6.42866e-18
6.34917e-18
6.26978e-18
6.18556e-18
6.09775e-18
6.00369e-18
5.90917e-18
5.7978e-18
5.68044e-18
5.57335e-18
5.43863e-18
5.28378e-18
5.15124e-18
4.9354e-18
4.79065e-18
1.06115e-17
1.04366e-17
1.01556e-17
9.99343e-18
9.8255e-18
9.66148e-18
9.51654e-18
9.37943e-18
9.25254e-18
9.13439e-18
9.02308e-18
8.91749e-18
8.81799e-18
8.72068e-18
8.62753e-18
8.53544e-18
8.44645e-18
8.35702e-18
8.26975e-18
8.18089e-18
8.09405e-18
8.00521e-18
7.91762e-18
7.8281e-18
7.73981e-18
7.64916e-18
7.55955e-18
7.46791e-18
7.37767e-18
7.28594e-18
7.19624e-18
7.10563e-18
7.01685e-18
6.92713e-18
6.83928e-18
6.75059e-18
6.6629e-18
6.57441e-18
6.4865e-18
6.39707e-18
6.30726e-18
6.21551e-18
6.12183e-18
6.02409e-18
5.92335e-18
5.81914e-18
5.70682e-18
5.58413e-18
5.46042e-18
5.3325e-18
5.17094e-18
4.99869e-18
4.85723e-18
4.6938e-18
4.39711e-18
4.22363e-18
1.11681e-17
1.09584e-17
1.06222e-17
1.04314e-17
1.02334e-17
1.00385e-17
9.86907e-18
9.70976e-18
9.56169e-18
9.42437e-18
9.29615e-18
9.17322e-18
9.05775e-18
8.94434e-18
8.83751e-18
8.72956e-18
8.62691e-18
8.52069e-18
8.42045e-18
8.31465e-18
8.21489e-18
8.10776e-18
8.00784e-18
7.8994e-18
7.79864e-18
7.68833e-18
7.58645e-18
7.474e-18
7.37162e-18
7.25888e-18
7.15768e-18
7.04636e-18
6.9469e-18
6.837e-18
6.73875e-18
6.62886e-18
6.53132e-18
6.42275e-18
6.32458e-18
6.21513e-18
6.11534e-18
6.00334e-18
5.89879e-18
5.78228e-18
5.67037e-18
5.54325e-18
5.41565e-18
5.27953e-18
5.13399e-18
4.95814e-18
4.80251e-18
4.62404e-18
4.39649e-18
4.19671e-18
3.88367e-18
3.66872e-18
1.17119e-17
1.14647e-17
1.10752e-17
1.0848e-17
1.06227e-17
1.04025e-17
1.02063e-17
1.00272e-17
9.85974e-18
9.70603e-18
9.55924e-18
9.42354e-18
9.29119e-18
9.16666e-18
9.04126e-18
8.92321e-18
8.80181e-18
8.68715e-18
8.56586e-18
8.45216e-18
8.32993e-18
8.21614e-18
8.09255e-18
7.97743e-18
7.85232e-18
7.73594e-18
7.60755e-18
7.48819e-18
7.35764e-18
7.23862e-18
7.10962e-18
6.99364e-18
6.86755e-18
6.75298e-18
6.62805e-18
6.51544e-18
6.39225e-18
6.27859e-18
6.15599e-18
6.04263e-18
5.91916e-18
5.80247e-18
5.67546e-18
5.55213e-18
5.41651e-18
5.28165e-18
5.13595e-18
4.98051e-18
4.80807e-18
4.64086e-18
4.44218e-18
4.19436e-18
3.99835e-18
3.78159e-18
3.3705e-18
3.12485e-18
1.224e-17
1.19537e-17
1.15031e-17
1.12464e-17
1.09901e-17
1.07435e-17
1.05258e-17
1.03272e-17
1.01426e-17
9.97286e-18
9.81237e-18
9.66256e-18
9.51627e-18
9.37851e-18
9.24042e-18
9.10953e-18
8.9739e-18
8.84601e-18
8.71053e-18
8.58327e-18
8.44591e-18
8.31833e-18
8.1782e-18
8.05017e-18
7.90804e-18
7.77895e-18
7.63159e-18
7.49802e-18
7.34734e-18
7.21425e-18
7.06509e-18
6.93761e-18
6.79292e-18
6.66748e-18
6.52385e-18
6.4007e-18
6.25737e-18
6.13574e-18
5.99531e-18
5.87262e-18
5.73045e-18
5.60622e-18
5.46137e-18
5.32907e-18
5.17715e-18
5.03379e-18
4.86541e-18
4.70069e-18
4.51441e-18
4.31407e-18
4.08859e-18
3.86514e-18
3.59451e-18
3.31807e-18
2.88729e-18
2.59898e-18
1.27487e-17
1.24232e-17
1.19069e-17
1.1627e-17
1.13363e-17
1.10648e-17
1.08315e-17
1.06128e-17
1.04155e-17
1.0231e-17
1.00611e-17
9.89529e-18
9.74257e-18
9.58771e-18
9.44433e-18
9.29335e-18
9.15441e-18
9.00296e-18
8.86568e-18
8.71115e-18
8.5737e-18
8.41519e-18
8.27673e-18
8.11442e-18
7.97487e-18
7.80902e-18
7.66553e-18
7.49438e-18
7.35138e-18
7.17924e-18
7.03842e-18
6.87104e-18
6.73489e-18
6.56913e-18
6.43427e-18
6.26952e-18
6.13768e-18
5.97806e-18
5.8443e-18
5.68573e-18
5.5532e-18
5.39401e-18
5.25714e-18
5.09524e-18
4.94861e-18
4.77602e-18
4.61093e-18
4.42139e-18
4.22885e-18
4.00639e-18
3.77794e-18
3.49737e-18
3.20571e-18
2.94688e-18
2.41675e-18
2.09088e-18
1.32303e-17
1.28561e-17
1.22656e-17
1.1962e-17
1.16473e-17
1.13547e-17
1.11046e-17
1.08744e-17
1.06649e-17
1.04716e-17
1.02898e-17
1.0117e-17
9.95193e-18
9.78963e-18
9.6317e-18
9.47369e-18
9.31864e-18
9.16001e-18
9.00408e-18
8.84285e-18
8.68444e-18
8.52005e-18
8.36022e-18
8.19378e-18
8.03869e-18
7.8727e-18
7.70351e-18
7.51447e-18
7.33158e-18
7.14228e-18
6.97287e-18
6.80371e-18
6.64854e-18
6.48027e-18
6.32341e-18
6.15685e-18
6.0022e-18
5.83525e-18
5.68431e-18
5.5235e-18
5.37338e-18
5.21e-18
5.05697e-18
4.89005e-18
4.72857e-18
4.55078e-18
4.37493e-18
4.17668e-18
3.96881e-18
3.7342e-18
3.49087e-18
3.19511e-18
2.88217e-18
2.56975e-18
1.9851e-18
1.6113e-18
1.36853e-17
1.3258e-17
1.25904e-17
1.2249e-17
1.19174e-17
1.16062e-17
1.13405e-17
1.1105e-17
1.08853e-17
1.0686e-17
1.04953e-17
1.03186e-17
1.01415e-17
9.97656e-18
9.80459e-18
9.64414e-18
9.47079e-18
9.31083e-18
9.13273e-18
8.9713e-18
8.78664e-18
8.62338e-18
8.43472e-18
8.26927e-18
8.09488e-18
7.95041e-18
7.74062e-18
7.53857e-18
7.30579e-18
7.1051e-18
6.89347e-18
6.75464e-18
6.57711e-18
6.41632e-18
6.22011e-18
6.06377e-18
5.87009e-18
5.71735e-18
5.5313e-18
5.37693e-18
5.19228e-18
5.04282e-18
4.8603e-18
4.70395e-18
4.51788e-18
4.35013e-18
4.14934e-18
3.95694e-18
3.73313e-18
3.50299e-18
3.22881e-18
2.92094e-18
2.59519e-18
2.24818e-18
1.58599e-18
1.15784e-18
1.41435e-17
1.36437e-17
1.2908e-17
1.25313e-17
1.21921e-17
1.18815e-17
1.16154e-17
1.13771e-17
1.11596e-17
1.09574e-17
1.07664e-17
1.05823e-17
1.04031e-17
1.02258e-17
1.00496e-17
9.87187e-18
9.69305e-18
9.51106e-18
9.32665e-18
9.13776e-18
8.94595e-18
8.74895e-18
8.54278e-18
8.30926e-18
8.07814e-18
7.86805e-18
7.65176e-18
7.48119e-18
7.36488e-18
7.19399e-18
6.97753e-18
6.76614e-18
6.53413e-18
6.30096e-18
6.0951e-18
5.89795e-18
5.70611e-18
5.51711e-18
5.33172e-18
5.1508e-18
4.97231e-18
4.79412e-18
4.61713e-18
4.4401e-18
4.26018e-18
4.07608e-18
3.88467e-18
3.68272e-18
3.46379e-18
3.22599e-18
2.96068e-18
2.64998e-18
2.30878e-18
1.93405e-18
1.20018e-18
7.00558e-19
1.45116e-17
1.37606e-17
1.31095e-17
1.26949e-17
1.23461e-17
1.20439e-17
1.17818e-17
1.15475e-17
1.13331e-17
1.11327e-17
1.0942e-17
1.07569e-17
1.05752e-17
1.03941e-17
1.02124e-17
1.00284e-17
9.84168e-18
9.65093e-18
9.45665e-18
9.25781e-18
9.05546e-18
8.84817e-18
8.64626e-18
8.49592e-18
8.37974e-18
8.22635e-18
7.9796e-18
7.6236e-18
7.22107e-18
6.8655e-18
6.61949e-18
6.46661e-18
6.35044e-18
6.19925e-18
5.99718e-18
5.78949e-18
5.58713e-18
5.38783e-18
5.19341e-18
5.00224e-18
4.81543e-18
4.63078e-18
4.44905e-18
4.26746e-18
4.08555e-18
3.9e-18
3.70913e-18
3.50835e-18
3.29375e-18
3.05906e-18
2.79703e-18
2.49477e-18
2.14593e-18
1.73191e-18
1.08162e-18
3.31883e-19
)
;

boundaryField
{
    top
    {
        type            zeroGradient;
    }
    bottom
    {
        type            zeroGradient;
    }
    rotatingWall
    {
        type            zeroGradient;
    }
    wall
    {
        type            zeroGradient;
    }
    frontAndBack
    {
        type            empty;
    }
}


// ************************************************************************* //
