/*--------------------------------*- C++ -*----------------------------------*\
| =========                 |                                                 |
| \\      /  F ield         | OpenFOAM: The Open Source CFD Toolbox           |
|  \\    /   O peration     | Version:  5.0                                   |
|   \\  /    A nd           | Web:      www.OpenFOAM.org                      |
|    \\/     M anipulation  |                                                 |
\*---------------------------------------------------------------------------*/
FoamFile
{
    version     2.0;
    format      ascii;
    class       volVectorField;
    location    "4.3";
    object      U;
}
// * * * * * * * * * * * * * * * * * * * * * * * * * * * * * * * * * * * * * //

dimensions      [0 1 -1 0 0 0 0];

internalField   nonuniform List<vector> 
25
(
(0.985368 0.00241455 9.08011e-23)
(0.939611 0.000871295 1.29205e-23)
(0.937442 0.000170073 -4.53926e-23)
(0.936087 0.000102592 5.2082e-24)
(0.93283 -0.00212484 8.52112e-24)
(0.789872 0.00554135 -3.46582e-23)
(0.796566 0.00403344 -5.94647e-23)
(0.797959 0.000736757 6.57434e-23)
(0.798567 0.000340167 6.53985e-24)
(0.795583 -0.000823526 -1.4858e-22)
(0.593506 0.00254877 4.81441e-23)
(0.610722 0.00306307 4.06497e-23)
(0.613773 0.000478139 3.03822e-23)
(0.614966 2.75507e-05 -1.23603e-24)
(0.613649 -0.000456744 -5.72655e-23)
(0.396744 -0.000590885 1.2299e-22)
(0.405155 0.00113931 1.1836e-23)
(0.407871 0.000148287 -2.58037e-24)
(0.407954 -0.0002372 -2.14725e-23)
(0.410056 0.00278345 -1.85502e-22)
(0.199603 -0.00516681 7.95642e-25)
(0.200866 0.000632838 1.65038e-23)
(0.202405 0.000111792 1.10187e-24)
(0.20125 -1.56427e-05 0)
(0.205537 0.0115103 0)
)
;

boundaryField
{
    top
    {
        type            fixedValue;
        value           uniform (0 0 0);
    }
    bottom
    {
        type            symmetryPlane;
    }
    inlet
    {
        type            pressureInletVelocity;
        value           nonuniform 0();
    }
    outlet
    {
        type            inletOutlet;
        inletValue      uniform (1 0 0);
        value           nonuniform List<vector> 5((0.93283 -0.00212484 8.52112e-24) (0.795583 -0.000823526 -1.4858e-22) (0.613649 -0.000456744 -5.72655e-23) (0.410056 0.00278345 -1.85502e-22) (0.205537 0.0115103 0));
    }
    frontAndBack
    {
        type            empty;
    }
    procBoundary1to0
    {
        type            processor;
        value           nonuniform List<vector> 5((0.981194 -0.00205176 3.29814e-23) (0.786648 -0.00135349 -4.09478e-23) (0.591119 0.000274307 -5.46205e-23) (0.395296 0.00143894 -5.21572e-23) (0.199138 0.00565553 3.40531e-23));
    }
}


// ************************************************************************* //
