/*--------------------------------*- C++ -*----------------------------------*\
| =========                 |                                                 |
| \\      /  F ield         | OpenFOAM: The Open Source CFD Toolbox           |
|  \\    /   O peration     | Version:  5.0                                   |
|   \\  /    A nd           | Web:      www.OpenFOAM.org                      |
|    \\/     M anipulation  |                                                 |
\*---------------------------------------------------------------------------*/
FoamFile
{
    version     2.0;
    format      ascii;
    class       surfaceScalarField;
    location    "14";
    object      phi;
}
// * * * * * * * * * * * * * * * * * * * * * * * * * * * * * * * * * * * * * //

dimensions      [0 3 -1 0 0 0 0];

internalField   nonuniform List<scalar> 
3052
(
-1.34229e-15
4.67707e-16
-5.9465e-15
4.51801e-15
-2.5102e-15
-3.53265e-15
4.55709e-15
-7.1438e-15
1.18078e-14
-7.30028e-15
1.81336e-14
-6.34867e-15
2.28031e-14
-4.67525e-15
2.5644e-14
-2.83559e-15
2.69398e-14
-1.28631e-15
2.72115e-14
-2.61339e-16
2.68848e-14
3.3562e-16
2.62904e-14
6.01139e-16
2.56363e-14
6.58458e-16
2.5003e-14
6.35622e-16
2.44676e-14
5.3644e-16
2.40795e-14
3.8814e-16
2.38279e-14
2.51102e-16
2.36759e-14
1.51088e-16
2.36122e-14
6.27081e-17
2.36353e-14
-2.42169e-17
2.37142e-14
-7.98015e-17
2.38066e-14
-9.3281e-17
2.38915e-14
-8.56282e-17
2.39518e-14
-6.08308e-17
2.39813e-14
-2.9939e-17
2.39749e-14
5.98782e-18
2.39274e-14
4.72488e-17
2.38237e-14
1.03603e-16
2.36496e-14
1.74197e-16
2.33847e-14
2.65208e-16
2.30507e-14
3.34738e-16
2.26568e-14
3.95041e-16
2.22119e-14
4.4647e-16
2.17051e-14
5.08723e-16
2.11477e-14
5.59532e-16
2.05401e-14
6.09955e-16
1.98824e-14
6.60009e-16
1.91725e-14
7.12144e-16
1.84226e-14
7.51953e-16
1.76212e-14
8.03148e-16
1.67668e-14
8.55931e-16
1.58616e-14
9.06418e-16
1.49019e-14
9.607e-16
1.38771e-14
1.02575e-15
1.27826e-14
1.09551e-15
1.16058e-14
1.17788e-15
1.0344e-14
1.26311e-15
9.00152e-15
1.34404e-15
7.60723e-15
1.39649e-15
6.21125e-15
1.3996e-15
4.84847e-15
1.36742e-15
3.52453e-15
1.33039e-15
2.25294e-15
1.27881e-15
1.1201e-15
1.14167e-15
3.13556e-16
8.13906e-16
3.14579e-16
3.42177e-15
-3.02876e-15
6.84603e-15
8.01293e-16
7.78738e-15
-4.72981e-15
9.01911e-15
-8.56806e-15
1.13529e-14
-9.7523e-15
1.37163e-14
-8.77085e-15
1.585e-14
-6.8238e-15
1.76966e-14
-4.67264e-15
1.91367e-14
-2.70523e-15
2.01047e-14
-1.20638e-15
2.0642e-14
-1.81602e-16
2.08175e-14
4.40515e-16
2.07524e-14
7.3307e-16
2.05903e-14
8.02873e-16
2.03919e-14
7.36632e-16
2.01808e-14
5.98711e-16
1.99887e-14
4.41248e-16
1.98464e-14
2.90621e-16
1.9759e-14
1.47012e-16
1.97105e-14
2.11992e-17
1.96875e-14
-5.96346e-17
1.96834e-14
-9.16138e-17
1.96827e-14
-8.69843e-17
1.96746e-14
-5.44809e-17
1.96458e-14
-2.46811e-18
1.95898e-14
6.0945e-17
1.94993e-14
1.3712e-16
1.93728e-14
2.30142e-16
1.92047e-14
3.43053e-16
1.89999e-14
4.71863e-16
1.87416e-14
5.96079e-16
1.84298e-14
7.11088e-16
1.80618e-14
8.19961e-16
1.76514e-14
9.25373e-16
1.71947e-14
1.02316e-15
1.66975e-14
1.11426e-15
1.61635e-14
1.20106e-15
1.55977e-14
1.28464e-15
1.49894e-14
1.36636e-15
1.43438e-14
1.45424e-15
1.36535e-14
1.55076e-15
1.29104e-14
1.65351e-15
1.21112e-14
1.76347e-15
1.12574e-14
1.88314e-15
1.03443e-14
2.01278e-15
9.37663e-15
2.15016e-15
8.358e-15
2.28721e-15
7.29864e-15
2.41026e-15
6.20326e-15
2.50218e-15
5.06789e-15
2.54853e-15
3.90383e-15
2.55015e-15
2.75158e-15
2.50251e-15
1.7098e-15
2.34468e-15
8.96422e-16
1.97658e-15
3.79575e-16
1.35493e-15
6.95355e-16
1.74316e-15
-4.85733e-15
3.75476e-15
-1.37005e-15
5.1084e-15
-6.24439e-15
6.11378e-15
-9.71221e-15
7.27297e-15
-1.10165e-14
8.70991e-15
-1.0277e-14
1.03239e-14
-8.47824e-15
1.19114e-14
-6.27851e-15
1.3338e-14
-4.13672e-15
1.44784e-14
-2.34378e-15
1.52947e-14
-9.92138e-16
1.58052e-14
-6.42061e-17
1.60674e-14
4.75292e-16
1.61593e-14
7.13572e-16
1.61338e-14
7.62863e-16
1.60338e-14
6.97814e-16
1.59021e-14
5.70952e-16
1.57693e-14
4.20743e-16
1.56459e-14
2.67292e-16
1.55314e-14
1.32485e-16
1.543e-14
3.86753e-17
1.53427e-14
-7.12212e-18
1.5266e-14
-1.27942e-17
1.51929e-14
1.65201e-17
1.51145e-14
7.4312e-17
1.50214e-14
1.52832e-16
1.49079e-14
2.50171e-16
1.47712e-14
3.67157e-16
1.46117e-14
5.03719e-16
1.44317e-14
6.54108e-16
1.42241e-14
8.06916e-16
1.39841e-14
9.55257e-16
1.37114e-14
1.09787e-15
1.3409e-14
1.23364e-15
1.30767e-14
1.36177e-15
1.2715e-14
1.48269e-15
1.23245e-14
1.59841e-15
1.19045e-14
1.71149e-15
1.1451e-14
1.82645e-15
1.09627e-14
1.9488e-15
1.04372e-14
2.08217e-15
9.86922e-15
2.22714e-15
9.2546e-15
2.38387e-15
8.5912e-15
2.55278e-15
7.87824e-15
2.73271e-15
7.11727e-15
2.9188e-15
6.3117e-15
3.1012e-15
5.46736e-15
3.2645e-15
4.59181e-15
3.38975e-15
3.69497e-15
3.46104e-15
2.79626e-15
3.46502e-15
1.94275e-15
3.37483e-15
1.18873e-15
3.11594e-15
5.97365e-16
2.5941e-15
1.91698e-16
1.77362e-15
8.87984e-16
-1.08946e-16
-4.75654e-15
1.67016e-15
-3.21818e-15
2.93508e-15
-7.5968e-15
3.63786e-15
-1.05086e-14
4.20148e-15
-1.1667e-14
5.0377e-15
-1.11858e-14
6.11494e-15
-9.60928e-15
7.31105e-15
-7.51108e-15
8.49614e-15
-5.34338e-15
9.54911e-15
-3.40802e-15
1.03998e-14
-1.84743e-15
1.10325e-14
-6.98071e-16
1.14518e-14
5.62829e-17
1.16825e-14
4.83121e-16
1.17685e-14
6.76455e-16
1.17494e-14
7.15601e-16
1.16624e-14
6.55829e-16
1.15385e-14
5.41984e-16
1.13941e-14
4.08499e-16
1.124e-14
2.83373e-16
1.10871e-14
1.88303e-16
1.09438e-14
1.33137e-16
1.08107e-14
1.1764e-16
1.0685e-14
1.39918e-16
1.05636e-14
1.93996e-16
1.04407e-14
2.74664e-16
1.03122e-14
3.78286e-16
1.01763e-14
5.03599e-16
1.00338e-14
6.47658e-16
9.88479e-15
8.05469e-16
9.72659e-15
9.68238e-16
9.55554e-15
1.13017e-15
9.37041e-15
1.28755e-15
9.17015e-15
1.43902e-15
8.95421e-15
1.58334e-15
8.72101e-15
1.7219e-15
8.46937e-15
1.85643e-15
8.19646e-15
1.99104e-15
7.89972e-15
2.13003e-15
7.57672e-15
2.27875e-15
7.22509e-15
2.44085e-15
6.84078e-15
2.61867e-15
6.41999e-15
2.81234e-15
5.95985e-15
3.0214e-15
5.45936e-15
3.24263e-15
4.919e-15
3.46945e-15
4.34133e-15
3.68978e-15
3.73131e-15
3.88631e-15
3.09816e-15
4.03669e-15
2.45534e-15
4.11861e-15
1.82873e-15
4.10799e-15
1.25066e-15
3.96742e-15
7.61375e-16
3.62203e-15
3.80284e-16
2.98596e-15
1.38933e-16
2.03176e-15
1.02762e-15
-7.05705e-16
-4.06335e-15
5.54824e-16
-4.47599e-15
1.27307e-15
-8.3331e-15
1.58663e-15
-1.08598e-14
1.802e-15
-1.19303e-14
2.16651e-15
-1.15999e-14
2.75918e-15
-1.02466e-14
3.53983e-15
-8.32756e-15
4.41017e-15
-6.24001e-15
5.26264e-15
-4.27794e-15
6.01552e-15
-2.61108e-15
6.62371e-15
-1.31228e-15
7.06459e-15
-3.87875e-16
7.33856e-15
2.07288e-16
7.47016e-15
5.43416e-16
7.49092e-15
6.93349e-16
7.42836e-15
7.16613e-16
7.30808e-15
6.60154e-16
7.14993e-15
5.64279e-16
6.96998e-15
4.60794e-16
6.78244e-15
3.73291e-16
6.59818e-15
3.14925e-16
6.42255e-15
2.91022e-16
6.25834e-15
3.02164e-16
6.10518e-15
3.45635e-16
5.96144e-15
4.17407e-16
5.82525e-15
5.14146e-16
5.69631e-15
6.32879e-16
5.57491e-15
7.70073e-16
5.46139e-15
9.20553e-16
5.35372e-15
1.078e-15
5.24925e-15
1.23715e-15
5.1456e-15
1.39412e-15
5.04146e-15
1.54648e-15
4.93498e-15
1.69353e-15
4.82431e-15
1.83673e-15
4.70661e-15
1.97875e-15
4.57912e-15
2.12368e-15
4.43839e-15
2.27641e-15
4.28159e-15
2.44165e-15
4.10558e-15
2.62336e-15
3.90693e-15
2.82433e-15
3.68153e-15
3.04554e-15
3.42667e-15
3.28513e-15
3.14093e-15
3.53846e-15
2.82475e-15
3.7966e-15
2.48032e-15
4.04573e-15
2.11252e-15
4.26638e-15
1.7295e-15
4.43279e-15
1.34644e-15
4.51617e-15
9.78466e-16
4.48924e-15
6.50898e-16
4.30764e-15
3.79139e-16
3.90355e-15
1.73622e-16
3.20911e-15
3.90352e-17
2.17153e-15
1.06711e-15
-6.87579e-16
-3.35149e-15
-7.37439e-17
-5.04086e-15
1.4505e-16
-8.5236e-15
8.45425e-17
-1.07947e-14
-6.15685e-17
-1.17998e-14
-9.43243e-17
-1.15946e-14
8.70094e-17
-1.04595e-14
4.7366e-16
-8.74385e-15
1.00445e-15
-6.79514e-15
1.59407e-15
-4.88573e-15
2.16423e-15
-3.19356e-15
2.65671e-15
-1.81259e-15
3.034e-15
-7.69796e-16
3.28119e-15
-4.26004e-17
3.40355e-15
4.19392e-16
3.42121e-15
6.74465e-16
3.35587e-15
7.80801e-16
3.22636e-15
7.88437e-16
3.05189e-15
7.37346e-16
2.84962e-15
6.61526e-16
2.63499e-15
5.86271e-16
2.42025e-15
5.28005e-16
2.21409e-15
4.95567e-16
2.02207e-15
4.92738e-16
1.84711e-15
5.19373e-16
1.69027e-15
5.73421e-16
1.55214e-15
6.51843e-16
1.43339e-15
7.51663e-16
1.3349e-15
8.68961e-16
1.25687e-15
9.99295e-16
1.19829e-15
1.13751e-15
1.15719e-15
1.27936e-15
1.1315e-15
1.42112e-15
1.11894e-15
1.56059e-15
1.11709e-15
1.69726e-15
1.12321e-15
1.83291e-15
1.13427e-15
1.97058e-15
1.14677e-15
2.1147e-15
1.15723e-15
2.27017e-15
1.16189e-15
2.44183e-15
1.15703e-15
2.63365e-15
1.13877e-15
2.84869e-15
1.10373e-15
3.08758e-15
1.04924e-15
3.34785e-15
9.73943e-16
3.62321e-15
8.77981e-16
3.90295e-15
7.63724e-16
4.17073e-15
6.36341e-16
4.40478e-15
4.98702e-16
4.58226e-15
3.5494e-16
4.67169e-15
2.23315e-16
4.6321e-15
1.20931e-16
4.41913e-15
5.20127e-17
3.98181e-15
2.76533e-18
3.26041e-15
-2.69687e-17
2.21026e-15
1.04042e-15
-6.11846e-16
-2.72346e-15
-4.61735e-16
-5.12972e-15
-6.19012e-16
-8.3179e-15
-1.00567e-15
-1.038e-14
-1.46578e-15
-1.13305e-14
-1.8341e-15
-1.12315e-14
-2.01595e-15
-1.0291e-14
-1.99019e-15
-8.78613e-15
-1.79207e-15
-7.00912e-15
-1.486e-15
-5.20499e-15
-1.14109e-15
-3.54835e-15
-8.16978e-16
-2.14342e-15
-5.57551e-16
-1.03349e-15
-3.87354e-16
-2.15294e-16
-3.13165e-16
3.43799e-16
-3.29449e-16
6.89971e-16
-4.22378e-16
8.7324e-16
-5.75376e-16
9.41014e-16
-7.72339e-16
9.33851e-16
-9.97295e-16
8.85913e-16
-1.23531e-15
8.23634e-16
-1.47361e-15
7.65545e-16
-1.70213e-15
7.23316e-16
-1.91347e-15
7.03295e-16
-2.10252e-15
7.07773e-16
-2.26598e-15
7.36371e-16
-2.40153e-15
7.87134e-16
-2.50729e-15
8.5736e-16
-2.5819e-15
9.43712e-16
-2.62467e-15
1.04229e-15
-2.63602e-15
1.14915e-15
-2.61719e-15
1.26085e-15
-2.57025e-15
1.37457e-15
-2.49767e-15
1.48849e-15
-2.4024e-15
1.60269e-15
-2.28758e-15
1.71913e-15
-2.15676e-15
1.84127e-15
-2.01366e-15
1.97367e-15
-1.86222e-15
2.12138e-15
-1.70655e-15
2.28934e-15
-1.55089e-15
2.48166e-15
-1.39908e-15
2.70113e-15
-1.2544e-15
2.948e-15
-1.11937e-15
3.21902e-15
-9.95689e-16
3.50688e-15
-8.84267e-16
3.79947e-15
-7.84897e-16
4.07939e-15
-6.95933e-16
4.32379e-15
-6.09661e-16
4.50403e-15
-5.17757e-16
4.58795e-15
-4.20773e-16
4.54202e-15
-3.18967e-16
4.32216e-15
-2.19306e-16
3.88407e-15
-1.34465e-16
3.18374e-15
-8.87818e-17
2.1635e-15
9.51644e-16
-4.38637e-16
-2.26034e-15
-5.71913e-16
-4.93191e-15
-1.06259e-15
-7.77056e-15
-1.74521e-15
-9.65525e-15
-2.48195e-15
-1.05686e-14
-3.14098e-15
-1.05615e-14
-3.63432e-15
-9.79719e-15
-3.92755e-15
-8.49831e-15
-4.03686e-15
-6.90761e-15
-4.00877e-15
-5.24081e-15
-3.90094e-15
-3.66256e-15
-3.76888e-15
-2.28013e-15
-3.6574e-15
-1.14796e-15
-3.59634e-15
-2.78041e-16
-3.60043e-15
3.47144e-16
-3.67298e-15
7.62371e-16
-3.80805e-15
1.00849e-15
-3.99412e-15
1.12741e-15
-4.21819e-15
1.15824e-15
-4.46639e-15
1.13438e-15
-4.72508e-15
1.08245e-15
-4.98192e-15
1.0224e-15
-5.22649e-15
9.67762e-16
-5.45036e-15
9.26976e-16
-5.64706e-15
9.04224e-16
-5.8117e-15
9.00815e-16
-5.94073e-15
9.16011e-16
-6.0314e-15
9.47967e-16
-6.08165e-15
9.93933e-16
-6.09024e-15
1.05086e-15
-6.05706e-15
1.11591e-15
-5.98314e-15
1.18684e-15
-5.87042e-15
1.26171e-15
-5.72146e-15
1.3394e-15
-5.53928e-15
1.42047e-15
-5.32728e-15
1.5073e-15
-5.08917e-15
1.60365e-15
-4.82895e-15
1.71434e-15
-4.55081e-15
1.84454e-15
-4.2591e-15
1.99929e-15
-3.95816e-15
2.18269e-15
-3.65187e-15
2.39723e-15
-3.34347e-15
2.64264e-15
-3.0355e-15
2.91507e-15
-2.73011e-15
3.20634e-15
-2.42887e-15
3.50347e-15
-2.13248e-15
3.78794e-15
-1.84009e-15
4.0359e-15
-1.55001e-15
4.21834e-15
-1.26246e-15
4.30453e-15
-9.77202e-16
4.25964e-15
-7.01227e-16
4.04755e-15
-4.46838e-16
3.63094e-15
-2.39591e-16
2.97169e-15
-1.06695e-16
2.03218e-15
8.44877e-16
-3.61643e-16
-1.88162e-15
-6.825e-16
-4.55412e-15
-1.36678e-15
-7.0329e-15
-2.25351e-15
-8.72537e-15
-3.20302e-15
-9.58798e-15
-4.09356e-15
-9.65165e-15
-4.84046e-15
-9.04013e-15
-5.40299e-15
-7.9322e-15
-5.7824e-15
-6.52838e-15
-6.00972e-15
-5.01542e-15
-6.13059e-15
-3.54395e-15
-6.19337e-15
-2.21921e-15
-6.24048e-15
-1.10205e-15
-6.30361e-15
-2.15455e-16
-6.40223e-15
4.45771e-16
-6.54466e-15
9.05184e-16
-6.73102e-15
1.19546e-15
-6.95562e-15
1.35271e-15
-7.209e-15
1.41233e-15
-7.47983e-15
1.40584e-15
-7.75631e-15
1.35946e-15
-8.0271e-15
1.29356e-15
-8.28207e-15
1.22298e-15
-8.51253e-15
1.15754e-15
-8.7113e-15
1.10301e-15
-8.87261e-15
1.06209e-15
-8.99202e-15
1.03538e-15
-9.06619e-15
1.02207e-15
-9.09243e-15
1.0201e-15
-9.06893e-15
1.02721e-15
-8.99516e-15
1.04194e-15
-8.87213e-15
1.06353e-15
-8.70191e-15
1.09116e-15
-8.48692e-15
1.12407e-15
-8.23001e-15
1.16327e-15
-7.93452e-15
1.21165e-15
-7.60423e-15
1.27345e-15
-7.24323e-15
1.3537e-15
-6.85584e-15
1.45777e-15
-6.44647e-15
1.59072e-15
-6.01944e-15
1.75659e-15
-5.57863e-15
1.95758e-15
-5.1273e-15
2.19301e-15
-4.66827e-15
2.45846e-15
-4.20407e-15
2.74524e-15
-3.73713e-15
3.03969e-15
-3.26947e-15
3.32287e-15
-2.80253e-15
3.57082e-15
-2.33813e-15
3.75554e-15
-1.87971e-15
3.84729e-15
-1.43421e-15
3.81469e-15
-1.01364e-15
3.62549e-15
-6.36048e-16
3.24988e-15
-3.24334e-16
2.66065e-15
-1.13419e-16
1.81691e-15
7.31247e-16
-3.12226e-16
-1.55231e-15
-7.67309e-16
-4.04963e-15
-1.57139e-15
-6.18073e-15
-2.58798e-15
-7.66671e-15
-3.6856e-15
-8.45718e-15
-4.74866e-15
-8.56443e-15
-5.69359e-15
-8.07933e-15
-6.47403e-15
-7.14221e-15
-7.08033e-15
-5.91704e-15
-7.53027e-15
-4.56311e-15
-7.85807e-15
-3.21518e-15
-8.10377e-15
-1.97307e-15
-8.30531e-15
-9.00142e-16
-8.49358e-15
-2.66744e-17
-8.69013e-15
6.43007e-16
-8.90707e-15
1.12295e-15
-9.14884e-15
1.43814e-15
-9.41388e-15
1.61868e-15
-9.69637e-15
1.69571e-15
-9.98782e-15
1.6981e-15
-1.02785e-14
1.65084e-15
-1.05585e-14
1.57411e-15
-1.08185e-14
1.48338e-15
-1.10501e-14
1.38944e-15
-1.12461e-14
1.29916e-15
-1.14003e-14
1.21633e-15
-1.15077e-14
1.14279e-15
-1.15647e-14
1.07898e-15
-1.15681e-14
1.02336e-15
-1.15154e-14
9.7441e-16
-1.1406e-14
9.32259e-16
-1.12409e-14
8.98084e-16
-1.10225e-14
8.72341e-16
-1.07528e-14
8.53984e-16
-1.04344e-14
8.44517e-16
-1.00705e-14
8.47472e-16
-9.6647e-15
8.67572e-16
-9.22115e-15
9.10227e-16
-8.74412e-15
9.80951e-16
-8.23798e-15
1.08484e-15
-7.70697e-15
1.22582e-15
-7.15487e-15
1.40584e-15
-6.58505e-15
1.62388e-15
-6.00051e-15
1.87523e-15
-5.4043e-15
2.15081e-15
-4.79968e-15
2.43676e-15
-4.19014e-15
2.71426e-15
-3.57928e-15
2.96007e-15
-2.97182e-15
3.14765e-15
-2.37444e-15
3.24953e-15
-1.79905e-15
3.23755e-15
-1.26194e-15
3.08602e-15
-7.83743e-16
2.76878e-15
-3.92115e-16
2.26226e-15
-1.18469e-16
1.54119e-15
6.12576e-16
-2.76832e-16
-1.26257e-15
-8.13033e-16
-3.47139e-15
-1.68984e-15
-5.26224e-15
-2.78497e-15
-6.5341e-15
-3.97714e-15
-7.23356e-15
-5.15862e-15
-7.35834e-15
-6.24789e-15
-6.9718e-15
-7.19528e-15
-6.18211e-15
-7.98244e-15
-5.12136e-15
-8.61644e-15
-3.92361e-15
-9.12096e-15
-2.70705e-15
-9.5276e-15
-1.56396e-15
-9.8689e-15
-5.56976e-16
-1.01733e-14
2.79249e-16
-1.04625e-14
9.33624e-16
-1.07509e-14
1.41261e-15
-1.10458e-14
1.73425e-15
-1.1349e-14
1.92292e-15
-1.16576e-14
2.0053e-15
-1.19659e-14
2.00724e-15
-1.22663e-14
1.95193e-15
-1.25505e-14
1.85886e-15
-1.28102e-14
1.74355e-15
-1.3038e-14
1.6175e-15
-1.32269e-14
1.48829e-15
-1.33708e-14
1.36029e-15
-1.34643e-14
1.2363e-15
-1.3504e-14
1.11855e-15
-1.34863e-14
1.00551e-15
-1.34084e-14
8.96206e-16
-1.32688e-14
7.92351e-16
-1.30691e-14
6.97914e-16
-1.28125e-14
6.15304e-16
-1.25001e-14
5.41188e-16
-1.21341e-14
4.78126e-16
-1.17175e-14
4.30526e-16
-1.12538e-14
4.03704e-16
-1.0747e-14
4.03372e-16
-1.02013e-14
4.35221e-16
-9.6208e-15
5.04341e-16
-9.00965e-15
6.14551e-16
-8.3715e-15
7.67569e-16
-7.70965e-15
9.62213e-16
-7.02732e-15
1.19357e-15
-6.32797e-15
1.45254e-15
-5.61575e-15
1.7254e-15
-4.89546e-15
1.99398e-15
-4.17261e-15
2.23624e-15
-3.45397e-15
2.42783e-15
-2.74982e-15
2.54366e-15
-2.07419e-15
2.56033e-15
-1.44751e-15
2.45559e-15
-8.93229e-16
2.20992e-15
-4.39121e-16
1.80555e-15
-1.24822e-16
1.22225e-15
4.87513e-16
-2.48348e-16
-1.00229e-15
-8.27626e-16
-2.85585e-15
-1.74034e-15
-4.31335e-15
-2.87295e-15
-5.36789e-15
-4.11512e-15
-5.96218e-15
-5.36732e-15
-6.08191e-15
-6.5518e-15
-5.76831e-15
-7.6172e-15
-5.10233e-15
-8.53911e-15
-4.18904e-15
-9.31584e-15
-3.13942e-15
-9.96204e-15
-2.05557e-15
-1.05013e-14
-1.0208e-15
-1.09605e-14
-9.4905e-17
-1.13646e-14
6.85731e-16
-1.17346e-14
1.30545e-15
-1.20853e-14
1.76496e-15
-1.24261e-14
2.07644e-15
-1.27611e-14
2.25909e-15
-1.30901e-14
2.33524e-15
-1.34096e-14
2.32759e-15
-1.37142e-14
2.25714e-15
-1.3997e-14
2.14224e-15
-1.42512e-14
1.99812e-15
-1.44704e-14
1.83699e-15
-1.46487e-14
1.66672e-15
-1.47797e-14
1.49142e-15
-1.4858e-14
1.31449e-15
-1.48808e-14
1.14122e-15
-1.48442e-14
9.6862e-16
-1.47447e-14
7.9632e-16
-1.45802e-14
6.27427e-16
-1.43544e-14
4.7166e-16
-1.40705e-14
3.30949e-16
-1.37277e-14
1.97971e-16
-1.33282e-14
7.81661e-17
-1.28749e-14
-2.31407e-17
-1.23712e-14
-1.00186e-16
-1.18209e-14
-1.47043e-16
-1.12279e-14
-1.57895e-16
-1.05962e-14
-1.27638e-16
-9.9294e-15
-5.25549e-17
-9.23115e-15
6.89428e-17
-8.50463e-15
2.35549e-16
-7.75311e-15
4.42384e-16
-6.98041e-15
6.80509e-16
-6.19137e-15
9.36791e-16
-5.3919e-15
1.19403e-15
-4.58891e-15
1.43191e-15
-3.79131e-15
1.6283e-15
-3.01069e-15
1.76166e-15
-2.26496e-15
1.8116e-15
-1.57409e-15
1.7619e-15
-9.6614e-16
1.59784e-15
-4.74619e-16
1.30809e-15
-1.42628e-16
8.87207e-16
3.4467e-16
-2.3662e-16
-7.55533e-16
-8.26208e-16
-2.23451e-15
-1.74183e-15
-3.36608e-15
-2.87698e-15
-4.20321e-15
-4.13058e-15
-4.68229e-15
-5.41167e-15
-4.77845e-15
-6.64684e-15
-4.51475e-15
-7.78474e-15
-3.94992e-15
-8.79674e-15
-3.16584e-15
-9.6745e-15
-2.25324e-15
-1.04249e-14
-1.29878e-15
-1.10648e-14
-3.76117e-16
-1.16153e-14
4.59246e-16
-1.20978e-14
1.17113e-15
-1.25313e-14
1.74129e-15
-1.29307e-14
2.16624e-15
-1.33062e-14
2.4535e-15
-1.36636e-14
2.61773e-15
-1.40047e-14
2.67733e-15
-1.43282e-14
2.65185e-15
-1.46304e-14
2.55999e-15
-1.49061e-14
2.41839e-15
-1.51494e-14
2.24171e-15
-1.53556e-14
2.04348e-15
-1.55201e-14
1.83124e-15
-1.56358e-14
1.60712e-15
-1.56971e-14
1.37576e-15
-1.57023e-14
1.14618e-15
-1.56482e-14
9.14201e-16
-1.55307e-14
6.78457e-16
-1.53504e-14
4.46718e-16
-1.51098e-14
2.30617e-16
-1.48081e-14
2.88139e-17
-1.44464e-14
-1.64176e-16
-1.40271e-14
-3.41615e-16
-1.35529e-14
-4.97663e-16
-1.30271e-14
-6.26274e-16
-1.2453e-14
-7.21325e-16
-1.18341e-14
-7.76936e-16
-1.11741e-14
-7.87991e-16
-1.04763e-14
-7.50807e-16
-9.74397e-15
-6.63896e-16
-8.98013e-15
-5.28571e-16
-8.18801e-15
-3.49552e-16
-7.37164e-15
-1.35336e-16
-6.53636e-15
1.01726e-16
-5.68884e-15
3.4582e-16
-4.83718e-15
5.78522e-16
-3.99111e-15
7.80541e-16
-3.16487e-15
9.33005e-16
-2.3756e-15
1.02067e-15
-1.64851e-15
1.03054e-15
-1.009e-15
9.54225e-16
-4.90975e-16
7.86337e-16
-1.43266e-16
5.35618e-16
2.01186e-16
-2.21594e-16
-5.24916e-16
-8.09948e-16
-1.61796e-15
-1.70548e-15
-2.44268e-15
-2.81428e-15
-3.06823e-15
-4.04681e-15
-3.42617e-15
-5.32036e-15
-3.48431e-15
-6.56661e-15
-3.25119e-15
-7.73519e-15
-2.76717e-15
-8.79513e-15
-2.09468e-15
-9.73308e-15
-1.30652e-15
-1.055e-14
-4.75132e-16
-1.12565e-14
3.35665e-16
-1.18688e-14
1.07564e-15
-1.24047e-14
1.71025e-15
-1.2881e-14
2.22015e-15
-1.33119e-14
2.59908e-15
-1.37078e-14
2.85096e-15
-1.40755e-14
2.98668e-15
-1.44184e-14
3.02117e-15
-1.47368e-14
2.97106e-15
-1.50291e-14
2.85278e-15
-1.52911e-14
2.68075e-15
-1.55179e-14
2.46872e-15
-1.57071e-14
2.2328e-15
-1.58542e-14
1.97838e-15
-1.5952e-14
1.70483e-15
-1.59965e-14
1.42011e-15
-1.59839e-14
1.13329e-15
-1.59136e-14
8.43646e-16
-1.57848e-14
5.49332e-16
-1.55981e-14
2.59626e-16
-1.53505e-14
-1.74069e-17
-1.50402e-14
-2.81935e-16
-1.46712e-14
-5.33633e-16
-1.42458e-14
-7.6741e-16
-1.37665e-14
-9.77255e-16
-1.32361e-14
-1.15692e-15
-1.26575e-14
-1.30006e-15
-1.20338e-14
-1.40076e-15
-1.13682e-14
-1.45391e-15
-1.06636e-14
-1.45587e-15
-9.92291e-15
-1.40518e-15
-9.14871e-15
-1.30308e-15
-8.34411e-15
-1.15399e-15
-7.51319e-15
-9.6579e-16
-6.66152e-15
-7.4976e-16
-5.79631e-15
-5.20192e-16
-4.92609e-15
-2.93288e-16
-4.06196e-15
-8.58208e-17
-3.21771e-15
8.74034e-17
-2.41398e-15
2.13619e-16
-1.6716e-15
2.85611e-16
-1.02144e-15
2.99537e-16
-4.9792e-16
2.58227e-16
-1.41847e-16
1.76147e-16
5.91371e-17
-2.12977e-16
-3.03511e-16
-7.80898e-16
-1.02502e-15
-1.63634e-15
-1.56255e-15
-2.69569e-15
-1.98574e-15
-3.87973e-15
-2.2212e-15
-5.11431e-15
-2.23134e-15
-6.33637e-15
-2.01339e-15
-7.4976e-15
-1.59285e-15
-8.56598e-15
-1.01564e-15
-9.52495e-15
-3.39046e-16
-1.03708e-14
3.77494e-16
-1.11095e-14
1.07965e-15
-1.17527e-14
1.72306e-15
-1.23149e-14
2.27577e-15
-1.28107e-14
2.71856e-15
-1.32531e-14
3.04351e-15
-1.36525e-14
3.25191e-15
-1.40162e-14
3.3516e-15
-1.43487e-14
3.35451e-15
-1.46516e-14
3.2746e-15
-1.49244e-14
3.12609e-15
-1.51653e-14
2.9219e-15
-1.53718e-14
2.67527e-15
-1.55401e-14
2.4011e-15
-1.56647e-14
2.10291e-15
-1.57422e-14
1.78206e-15
-1.57702e-14
1.44789e-15
-1.57442e-14
1.10695e-15
-1.56627e-14
7.6184e-16
-1.55271e-14
4.13359e-16
-1.53363e-14
6.84477e-17
-1.50872e-14
-2.66803e-16
-1.47797e-14
-5.89814e-16
-1.44161e-14
-8.97557e-16
-1.39987e-14
-1.185e-15
-1.353e-14
-1.44616e-15
-1.30124e-14
-1.67466e-15
-1.24483e-14
-1.86413e-15
-1.18405e-14
-2.00863e-15
-1.11916e-14
-2.10309e-15
-1.0504e-14
-2.14394e-15
-9.77994e-15
-2.12972e-15
-9.02179e-15
-2.06151e-15
-8.23227e-15
-1.94334e-15
-7.41528e-15
-1.78229e-15
-6.5764e-15
-1.58848e-15
-5.7229e-15
-1.37447e-15
-4.8637e-15
-1.15431e-15
-4.00956e-15
-9.4166e-16
-3.17601e-15
-7.48746e-16
-2.38079e-15
-5.8305e-16
-1.65067e-15
-4.49025e-16
-1.0091e-15
-3.45432e-16
-4.87723e-16
-2.67627e-16
-1.24614e-16
-1.89936e-16
-6.56764e-17
-2.02958e-16
-9.35599e-17
-7.40354e-16
-4.65108e-16
-1.53878e-15
-7.42269e-16
-2.52792e-15
-9.76229e-16
-3.63969e-15
-1.09097e-15
-4.8075e-15
-1.04719e-15
-5.97357e-15
-8.33225e-16
-7.0924e-15
-4.62132e-16
-8.13226e-15
3.399e-17
-9.07475e-15
6.11373e-16
-9.91309e-15
1.22218e-15
-1.06494e-14
1.82105e-15
-1.1292e-14
2.36961e-15
-1.18522e-14
2.83914e-15
-1.23425e-14
3.21136e-15
-1.27748e-14
3.47769e-15
-1.3159e-14
3.63755e-15
-1.35027e-14
3.69641e-15
-1.38112e-14
3.66367e-15
-1.4087e-14
3.55096e-15
-1.43312e-14
3.37055e-15
-1.45436e-14
3.13436e-15
-1.47228e-14
2.8544e-15
-1.48636e-14
2.54176e-15
-1.49623e-14
2.20136e-15
-1.50185e-14
1.83793e-15
-1.50296e-14
1.45861e-15
-1.49922e-14
1.06919e-15
-1.49043e-14
6.73549e-16
-1.47661e-14
2.74822e-16
-1.45766e-14
-1.213e-16
-1.43344e-14
-5.09367e-16
-1.40393e-14
-8.85126e-16
-1.36929e-14
-1.24403e-15
-1.32974e-14
-1.58064e-15
-1.28547e-14
-1.88887e-15
-1.23669e-14
-2.16235e-15
-1.18362e-14
-2.39474e-15
-1.12645e-14
-2.58017e-15
-1.06541e-14
-2.71365e-15
-1.00066e-14
-2.79171e-15
-9.32387e-15
-2.81279e-15
-8.6077e-15
-2.77783e-15
-7.86029e-15
-2.69044e-15
-7.08518e-15
-2.55682e-15
-6.28762e-15
-2.38577e-15
-5.47468e-15
-2.18817e-15
-4.65483e-15
-1.97567e-15
-3.83928e-15
-1.75943e-15
-3.04157e-15
-1.54756e-15
-2.28253e-15
-1.34558e-15
-1.58087e-15
-1.15286e-15
-9.67113e-16
-9.64097e-16
-4.72621e-16
-7.65471e-16
-1.34295e-16
-5.32147e-16
-2.00167e-16
-1.97403e-16
1.10882e-16
-6.842e-16
4.10769e-17
-1.41032e-15
2.9255e-18
-2.3135e-15
-5.52506e-17
-3.33252e-15
-5.58326e-17
-4.40833e-15
4.28372e-17
-5.48898e-15
2.59742e-16
-6.53269e-15
5.91955e-16
-7.50907e-15
1.01898e-15
-8.39924e-15
1.50853e-15
-9.19451e-15
2.02308e-15
-9.89447e-15
2.5255e-15
-1.05046e-14
2.98327e-15
-1.10338e-14
3.37114e-15
-1.14928e-14
3.67243e-15
-1.1892e-14
3.87853e-15
-1.22411e-14
3.98771e-15
-1.25476e-14
4.00368e-15
-1.28172e-14
3.93375e-15
-1.30535e-14
3.78759e-15
-1.32587e-14
3.57575e-15
-1.34332e-14
3.30882e-15
-1.35761e-14
2.99706e-15
-1.36842e-14
2.64954e-15
-1.37556e-14
2.27241e-15
-1.37894e-14
1.8713e-15
-1.37835e-14
1.45229e-15
-1.37355e-14
1.02081e-15
-1.36437e-14
5.81396e-16
-1.35076e-14
1.38408e-16
-1.33264e-14
-3.02783e-16
-1.30993e-14
-7.36664e-16
-1.28264e-14
-1.15801e-15
-1.25091e-14
-1.56133e-15
-1.21489e-14
-1.94073e-15
-1.17475e-14
-2.29004e-15
-1.13065e-14
-2.60295e-15
-1.08276e-14
-2.87327e-15
-1.03122e-14
-3.09523e-15
-9.76162e-15
-3.264e-15
-9.17722e-15
-3.37613e-15
-8.56012e-15
-3.43002e-15
-7.91143e-15
-3.42642e-15
-7.23272e-15
-3.36865e-15
-6.52688e-15
-3.26186e-15
-5.79868e-15
-3.11355e-15
-5.05449e-15
-2.93284e-15
-4.30238e-15
-2.72933e-15
-3.55194e-15
-2.51118e-15
-2.81763e-15
-2.28435e-15
-2.11485e-15
-2.0494e-15
-1.4687e-15
-1.8036e-15
-8.99033e-16
-1.5366e-15
-4.36113e-16
-1.23375e-15
-1.18156e-16
-8.52274e-16
-3.18514e-16
-1.73393e-16
2.89321e-16
-6.06799e-16
4.9158e-16
-1.25139e-15
6.63897e-16
-2.05411e-15
7.62591e-16
-2.9612e-15
8.64848e-16
-3.92116e-15
1.01477e-15
-4.88858e-15
1.23745e-15
-5.8261e-15
1.53816e-15
-6.70578e-15
1.9058e-15
-7.50926e-15
2.31782e-15
-8.22714e-15
2.74561e-15
-8.85742e-15
3.15946e-15
-9.40364e-15
3.53235e-15
-9.87277e-15
3.84245e-15
-1.02738e-14
4.0751e-15
-1.06164e-14
4.22221e-15
-1.09093e-14
4.2813e-15
-1.11601e-14
4.255e-15
-1.1375e-14
4.1488e-15
-1.15583e-14
3.97081e-15
-1.17127e-14
3.72996e-15
-1.18396e-14
3.43542e-15
-1.19389e-14
3.09592e-15
-1.20091e-14
2.7194e-15
-1.20494e-14
2.31218e-15
-1.20587e-14
1.88009e-15
-1.20355e-14
1.42864e-15
-1.19782e-14
9.63099e-16
-1.18853e-14
4.88197e-16
-1.17562e-14
8.96154e-18
-1.159e-14
-4.69183e-16
-1.13864e-14
-9.40326e-16
-1.11458e-14
-1.39863e-15
-1.08692e-14
-1.83789e-15
-1.05577e-14
-2.252e-15
-1.02127e-14
-2.63466e-15
-9.83538e-15
-2.97984e-15
-9.42663e-15
-3.28143e-15
-8.9873e-15
-3.53398e-15
-8.51805e-15
-3.73276e-15
-8.01941e-15
-3.87448e-15
-7.49187e-15
-3.95731e-15
-6.93586e-15
-3.98196e-15
-6.35195e-15
-3.95164e-15
-5.74236e-15
-3.87027e-15
-5.11103e-15
-3.74401e-15
-4.46351e-15
-3.58045e-15
-3.80649e-15
-3.38707e-15
-3.14908e-15
-3.17001e-15
-2.5021e-15
-2.93144e-15
-1.88334e-15
-2.67097e-15
-1.30694e-15
-2.38131e-15
-8.00849e-16
-2.04731e-15
-3.93708e-16
-1.64275e-15
-1.20485e-16
-1.12964e-15
-4.3915e-16
-1.51529e-16
4.46294e-16
-5.1537e-16
8.68851e-16
-1.06556e-15
1.22734e-15
-1.75259e-15
1.46189e-15
-2.52803e-15
1.65122e-15
-3.34849e-15
1.84475e-15
-4.17565e-15
2.07275e-15
-4.97729e-15
2.34659e-15
-5.72857e-15
2.66265e-15
-6.41263e-15
3.00634e-15
-7.0202e-15
3.35671e-15
-7.5486e-15
3.69058e-15
-8.00023e-15
3.98607e-15
-8.38058e-15
4.2243e-15
-8.69726e-15
4.39286e-15
-8.95904e-15
4.48464e-15
-9.17427e-15
4.49689e-15
-9.35056e-15
4.43132e-15
-9.49408e-15
4.2922e-15
-9.60983e-15
4.08619e-15
-9.70127e-15
3.82097e-15
-9.77055e-15
3.50412e-15
-9.8185e-15
3.14331e-15
-9.84505e-15
2.74529e-15
-9.84981e-15
2.31636e-15
-9.83223e-15
1.86188e-15
-9.79131e-15
1.38724e-15
-9.72594e-15
8.97199e-16
-9.63496e-15
3.9684e-16
-9.5176e-15
-1.08841e-16
-9.3732e-15
-6.13888e-16
-9.2016e-15
-1.11226e-15
-9.00318e-15
-1.59724e-15
-8.7788e-15
-2.06245e-15
-8.52943e-15
-2.50134e-15
-8.25592e-15
-2.90803e-15
-7.95883e-15
-3.27649e-15
-7.63846e-15
-3.6012e-15
-7.29489e-15
-3.87676e-15
-6.92799e-15
-4.09893e-15
-6.53741e-15
-4.26433e-15
-6.12286e-15
-4.37112e-15
-5.68421e-15
-4.41953e-15
-5.22068e-15
-4.41362e-15
-4.73373e-15
-4.35526e-15
-4.22626e-15
-4.24977e-15
-3.70253e-15
-4.10313e-15
-3.16799e-15
-3.92142e-15
-2.62911e-15
-3.70822e-15
-2.09671e-15
-3.46443e-15
-1.58143e-15
-3.18531e-15
-1.10386e-15
-2.86168e-15
-6.78057e-16
-2.47426e-15
-3.30201e-16
-1.99557e-15
-9.10769e-17
-1.36915e-15
-5.30334e-16
-1.18932e-16
5.68174e-16
-4.14181e-16
1.17476e-15
-8.59029e-16
1.68213e-15
-1.41235e-15
2.02413e-15
-2.03502e-15
2.28158e-15
-2.6923e-15
2.50852e-15
-3.35311e-15
2.73888e-15
-3.9906e-15
2.98836e-15
-4.58366e-15
3.25901e-15
-5.11751e-15
3.54269e-15
-5.58376e-15
3.8247e-15
-5.97961e-15
4.08764e-15
-6.30715e-15
4.31426e-15
-6.57128e-15
4.48874e-15
-6.77824e-15
4.59967e-15
-6.9353e-15
4.64135e-15
-7.05173e-15
4.6126e-15
-7.13414e-15
4.51292e-15
-7.18942e-15
4.34638e-15
-7.22292e-15
4.11863e-15
-7.23902e-15
3.83579e-15
-7.24036e-15
3.50433e-15
-7.22892e-15
3.13059e-15
-7.20526e-15
2.7206e-15
-7.17004e-15
2.28001e-15
-7.12286e-15
1.81391e-15
-7.06365e-15
1.32716e-15
-6.99128e-15
8.24338e-16
-6.90527e-15
3.10224e-16
-6.80439e-15
-2.09993e-16
-6.68843e-15
-7.30271e-16
-6.55686e-15
-1.24393e-15
-6.41055e-15
-1.7438e-15
-6.24981e-15
-2.22306e-15
-6.07579e-15
-2.67523e-15
-5.88843e-15
-3.09477e-15
-5.68804e-15
-3.47609e-15
-5.47375e-15
-3.81414e-15
-5.24527e-15
-4.10378e-15
-5.00121e-15
-4.34118e-15
-4.74053e-15
-4.52327e-15
-4.46141e-15
-4.64817e-15
-4.16334e-15
-4.71524e-15
-3.84467e-15
-4.72918e-15
-3.50595e-15
-4.69051e-15
-3.14835e-15
-4.60391e-15
-2.77487e-15
-4.47392e-15
-2.3886e-15
-4.30529e-15
-1.99489e-15
-4.10008e-15
-1.59984e-15
-3.8562e-15
-1.21615e-15
-3.56841e-15
-8.50898e-16
-3.22529e-15
-5.25204e-16
-2.80165e-15
-2.61486e-16
-2.25766e-15
-8.88922e-17
-1.5439e-15
-6.19189e-16
-8.99271e-17
6.61344e-16
-3.0619e-16
1.39677e-15
-6.31987e-16
2.01337e-15
-1.03456e-15
2.43123e-15
-1.48427e-15
2.73478e-15
-1.9559e-15
2.98259e-15
-2.42574e-15
3.21034e-15
-2.87289e-15
3.43633e-15
-3.28029e-15
3.66665e-15
-3.63599e-15
3.89798e-15
-3.93266e-15
4.12062e-15
-4.16786e-15
4.32157e-15
-4.34244e-15
4.48739e-15
-4.46253e-15
4.60691e-15
-4.53717e-15
4.67235e-15
-4.57036e-15
4.67214e-15
-4.5667e-15
4.60663e-15
-4.53612e-15
4.47965e-15
-4.48635e-15
4.29418e-15
-4.42351e-15
4.05303e-15
-4.35166e-15
3.76162e-15
-4.27505e-15
3.42513e-15
-4.19556e-15
3.04908e-15
-4.11553e-15
2.63838e-15
-4.03528e-15
2.19829e-15
-3.95612e-15
1.73313e-15
-3.87732e-15
1.24759e-15
-3.79936e-15
7.45456e-16
-3.72067e-15
2.31428e-16
-3.64124e-15
-2.89815e-16
-3.55952e-15
-8.11657e-16
-3.47628e-15
-1.32717e-15
-3.39105e-15
-1.82827e-15
-3.3055e-15
-2.30807e-15
-3.21916e-15
-2.76017e-15
-3.13271e-15
-3.1798e-15
-3.0443e-15
-3.56206e-15
-2.95353e-15
-3.90235e-15
-2.85795e-15
-4.19587e-15
-2.75678e-15
-4.4389e-15
-2.64711e-15
-4.6288e-15
-2.52613e-15
-4.76503e-15
-2.38866e-15
-4.84765e-15
-2.23659e-15
-4.87576e-15
-2.06959e-15
-4.85118e-15
-1.88699e-15
-4.78035e-15
-1.68819e-15
-4.66669e-15
-1.47536e-15
-4.51272e-15
-1.24995e-15
-4.31923e-15
-1.01784e-15
-4.0831e-15
-7.83341e-16
-3.7965e-15
-5.59706e-16
-3.44565e-15
-3.50617e-16
-3.0066e-15
-1.72395e-16
-2.43591e-15
-4.83701e-17
-1.66377e-15
-6.67318e-16
-4.86169e-17
7.10286e-16
-1.86165e-16
1.5368e-15
-3.8277e-16
2.21189e-15
-6.19295e-16
2.66887e-15
-8.7837e-16
2.99405e-15
-1.14436e-15
3.24803e-15
-1.40146e-15