/*--------------------------------*- C++ -*----------------------------------*\
| =========                 |                                                 |
| \\      /  F ield         | OpenFOAM: The Open Source CFD Toolbox           |
|  \\    /   O peration     | Version:  5.0                                   |
|   \\  /    A nd           | Web:      www.OpenFOAM.org                      |
|    \\/     M anipulation  |                                                 |
\*---------------------------------------------------------------------------*/
FoamFile
{
    version     2.0;
    format      ascii;
    class       volScalarField;
    location    "397";
    object      p;
}
// * * * * * * * * * * * * * * * * * * * * * * * * * * * * * * * * * * * * * //

dimensions      [0 2 -2 0 0 0 0];

internalField   nonuniform List<scalar> 
1568
(
6.309e-18
7.44646e-17
1.31687e-16
1.6502e-16
1.94843e-16
2.21869e-16
2.43524e-16
2.63425e-16
2.81935e-16
2.99007e-16
3.15195e-16
3.30982e-16
3.46561e-16
3.6197e-16
3.77443e-16
3.9313e-16
4.09045e-16
4.25268e-16
4.41817e-16
4.58735e-16
4.75974e-16
4.93591e-16
5.10821e-16
5.23697e-16
5.33551e-16
5.46469e-16
5.67365e-16
5.97595e-16
6.31843e-16
6.62182e-16
6.83197e-16
6.96255e-16
7.06089e-16
7.18893e-16
7.36078e-16
7.53722e-16
7.70898e-16
7.87861e-16
8.04386e-16
8.20605e-16
8.3651e-16
8.52214e-16
8.67659e-16
8.83121e-16
8.9863e-16
9.14423e-16
9.30704e-16
9.47855e-16
9.66108e-16
9.8607e-16
1.00856e-15
1.03437e-15
1.06408e-15
1.09934e-15
1.15519e-15
1.21882e-15
4.30599e-17
7.62533e-17
1.6757e-16
1.82636e-16
1.97984e-16
2.40547e-16
2.58948e-16
2.76674e-16
2.97608e-16
3.15196e-16
3.30609e-16
3.46036e-16
3.61762e-16
3.76727e-16
3.91838e-16
4.07038e-16
4.22254e-16
4.37736e-16
4.53473e-16
4.69535e-16
4.85822e-16
5.02577e-16
5.19959e-16
5.39691e-16
5.59083e-16
5.77214e-16
5.95511e-16
6.10177e-16
6.19551e-16
6.34712e-16
6.52881e-16
6.70705e-16
6.89364e-16
7.0946e-16
7.26842e-16
7.4403e-16
7.59795e-16
7.7632e-16
7.91761e-16
8.07258e-16
8.22612e-16
8.38268e-16
8.53025e-16
8.68182e-16
8.83316e-16
8.99154e-16
9.15487e-16
9.32851e-16
9.50917e-16
9.71871e-16
9.95486e-16
1.02082e-15
1.05049e-15
1.08015e-15
1.14649e-15
1.18753e-15
8.47253e-17
1.32563e-16
1.45085e-16
2.03946e-16
2.37194e-16
2.57255e-16
2.76417e-16
3.01699e-16
3.19235e-16
3.32695e-16
3.51974e-16
3.68383e-16
3.81336e-16
3.96064e-16
4.10926e-16
4.24415e-16
4.38771e-16
4.53209e-16
4.67868e-16
4.8222e-16
4.97128e-16
5.12121e-16
5.27644e-16
5.42791e-16
5.57133e-16
5.70347e-16
5.86886e-16
6.05425e-16
6.24413e-16
6.42259e-16
6.58753e-16
6.72845e-16
6.88352e-16
7.03367e-16
7.1826e-16
7.32776e-16
7.48399e-16
7.62184e-16
7.76965e-16
7.91545e-16
8.05144e-16
8.18131e-16
8.33246e-16
8.47473e-16
8.62523e-16
8.77859e-16
8.93922e-16
9.10999e-16
9.30059e-16
9.50485e-16
9.71597e-16
9.94455e-16
1.03269e-15
1.0574e-15
1.11057e-15
1.14818e-15
1.21315e-16
1.5651e-16
2.14874e-16
2.28455e-16
2.59033e-16
2.81807e-16
3.01065e-16
3.23183e-16
3.41732e-16
3.57846e-16
3.72714e-16
3.8661e-16
4.0123e-16
4.1576e-16
4.28475e-16
4.42214e-16
4.55724e-16
4.68752e-16
4.81716e-16
4.95732e-16
5.09216e-16
5.22808e-16
5.36145e-16
5.49951e-16
5.62986e-16
5.76882e-16
5.91422e-16
6.07144e-16
6.22824e-16
6.38785e-16
6.53512e-16
6.66336e-16
6.78729e-16
6.92139e-16
7.06305e-16
7.19851e-16
7.33482e-16
7.47295e-16
7.60325e-16
7.73758e-16
7.87671e-16
8.01844e-16
8.15086e-16
8.28687e-16
8.4286e-16
8.57538e-16
8.72606e-16
8.89907e-16
9.07598e-16
9.25395e-16
9.50893e-16
9.76841e-16
9.97827e-16
1.02137e-15
1.0806e-15
1.10986e-15
1.61477e-16
1.81544e-16
2.35681e-16
2.53742e-16
2.80896e-16
3.03676e-16
3.24546e-16
3.43112e-16
3.58495e-16
3.74974e-16
3.89854e-16
4.03784e-16
4.1722e-16
4.29709e-16
4.42167e-16
4.54886e-16
4.67138e-16
4.79637e-16
4.92131e-16
5.0455e-16
5.16988e-16
5.29694e-16
5.42533e-16
5.55606e-16
5.6837e-16
5.81593e-16
5.94889e-16
6.08128e-16
6.21298e-16
6.34711e-16
6.48197e-16
6.61715e-16
6.74759e-16
6.87734e-16
7.00755e-16
7.13395e-16
7.25508e-16
7.38125e-16
7.50514e-16
7.62635e-16
7.74657e-16
7.86906e-16
7.99297e-16
8.12394e-16
8.2562e-16
8.39698e-16
8.5477e-16
8.69886e-16
8.86278e-16
9.07083e-16
9.26186e-16
9.4265e-16
9.76343e-16
1.00398e-15
1.03862e-15
1.06818e-15
2.05724e-16
2.3214e-16
2.67424e-16
2.91581e-16
3.11409e-16
3.30726e-16
3.51942e-16
3.68748e-16
3.82516e-16
3.97737e-16
4.11856e-16
4.24566e-16
4.3667e-16
4.4877e-16
4.60735e-16
4.71838e-16
4.82874e-16
4.94128e-16
5.0543e-16
5.16356e-16
5.27608e-16
5.39086e-16
5.50473e-16
5.61826e-16
5.73395e-16
5.84813e-16
5.9671e-16
6.08907e-16
6.21041e-16
6.33028e-16
6.44724e-16
6.56275e-16
6.6802e-16
6.79425e-16
6.90478e-16
7.01809e-16
7.13163e-16
7.24298e-16
7.35567e-16
7.46887e-16
7.58086e-16
7.69452e-16
7.81283e-16
7.93046e-16
8.05459e-16
8.18342e-16
8.31412e-16
8.46795e-16
8.63144e-16
8.7699e-16
8.97558e-16
9.22937e-16
9.40037e-16
9.54616e-16
1.00254e-15
1.02541e-15
2.50164e-16
2.72627e-16
3.03987e-16
3.23046e-16
3.4324e-16
3.62651e-16
3.78807e-16
3.9335e-16
4.0841e-16
4.21993e-16
4.33957e-16
4.45348e-16
4.5659e-16
4.67464e-16
4.77789e-16
4.88053e-16
4.98356e-16
5.08316e-16
5.18199e-16
5.28327e-16
5.38408e-16
5.48269e-16
5.5825e-16
5.68364e-16
5.78575e-16
5.88815e-16
5.99221e-16
6.09664e-16
6.20218e-16
6.30824e-16
6.4109e-16
6.51095e-16
6.612e-16
6.71284e-16
6.81271e-16
6.913e-16
7.01481e-16
7.11366e-16
7.21242e-16
7.31309e-16
7.41556e-16
7.51874e-16
7.62339e-16
7.73028e-16
7.84264e-16
7.96088e-16
8.08418e-16
8.21502e-16
8.35452e-16
8.52074e-16
8.69403e-16
8.82282e-16
9.07512e-16
9.31295e-16
9.5833e-16
9.79888e-16
2.96094e-16
3.13333e-16
3.41955e-16
3.58266e-16
3.76557e-16
3.92605e-16
4.06185e-16
4.19737e-16
4.33247e-16
4.44358e-16
4.55227e-16
4.65963e-16
4.76029e-16
4.85436e-16
4.94591e-16
5.03728e-16
5.12682e-16
5.21454e-16
5.30218e-16
5.39003e-16
5.47711e-16
5.56505e-16
5.65363e-16
5.74263e-16
5.83123e-16
5.92153e-16
6.01188e-16
6.10273e-16
6.19419e-16
6.28483e-16
6.37697e-16
6.46858e-16
6.55642e-16
6.64499e-16
6.73527e-16
6.82282e-16
6.90888e-16
6.99672e-16
7.08425e-16
7.17201e-16
7.26028e-16
7.34964e-16
7.44167e-16
7.53758e-16
7.63694e-16
7.74086e-16
7.84827e-16
7.96985e-16
8.09911e-16
8.21953e-16
8.37417e-16
8.55887e-16
8.71333e-16
8.81831e-16
9.16564e-16
9.33839e-16
3.43474e-16
3.58458e-16
3.83638e-16
3.96821e-16
4.11106e-16
4.23799e-16
4.37151e-16
4.49218e-16
4.59632e-16
4.69651e-16
4.79308e-16
4.88068e-16
4.96686e-16
5.05003e-16
5.12975e-16
5.20721e-16
5.28258e-16
5.35845e-16
5.43376e-16
5.50706e-16
5.58109e-16
5.65744e-16
5.73169e-16
5.80631e-16
5.88201e-16
5.95791e-16
6.03396e-16
6.11096e-16
6.18789e-16
6.26379e-16
6.34019e-16
6.41613e-16
6.49185e-16
6.56663e-16
6.64095e-16
6.71518e-16
6.78932e-16
6.86379e-16
6.93893e-16
7.01433e-16
7.09029e-16
7.16848e-16
7.24899e-16
7.33061e-16
7.41519e-16
7.50639e-16
7.60212e-16
7.70161e-16
7.80643e-16
7.92864e-16
8.06363e-16
8.16376e-16
8.34072e-16
8.50324e-16
8.70749e-16
8.86056e-16
3.918e-16
4.04126e-16
4.23528e-16
4.34265e-16
4.4672e-16
4.57551e-16
4.68908e-16
4.78295e-16
4.86485e-16
4.95305e-16
5.03502e-16
5.10734e-16
5.17745e-16
5.2462e-16
5.31145e-16
5.37661e-16
5.43963e-16
5.50143e-16
5.56262e-16
5.62556e-16
5.68613e-16
5.7462e-16
5.8076e-16
5.8698e-16
5.93124e-16
5.99306e-16
6.05547e-16
6.11807e-16
6.18027e-16
6.24346e-16
6.30514e-16
6.36642e-16
6.42812e-16
6.48984e-16
6.55062e-16
6.61127e-16
6.67311e-16
6.73452e-16
6.79568e-16
6.85753e-16
6.92064e-16
6.98521e-16
7.0508e-16
7.11883e-16
7.19012e-16
7.26474e-16
7.34077e-16
7.42828e-16
7.52156e-16
7.60615e-16
7.71656e-16
7.83407e-16
7.95932e-16
8.03522e-16
8.25963e-16
8.37839e-16
4.40729e-16
4.50295e-16
4.64801e-16
4.73935e-16
4.83746e-16
4.91896e-16
5.0027e-16
5.0752e-16
5.14693e-16
5.2148e-16
5.27374e-16
5.3335e-16
5.39065e-16
5.44351e-16
5.49484e-16
5.5458e-16
5.59584e-16
5.64424e-16
5.69207e-16
5.73962e-16
5.78821e-16
5.83522e-16
5.88331e-16
5.93047e-16
5.97817e-16
6.02633e-16
6.07613e-16
6.12524e-16
6.17435e-16
6.2231e-16
6.2708e-16
6.31914e-16
6.36744e-16
6.41519e-16
6.46309e-16
6.51077e-16
6.55824e-16
6.60575e-16
6.65367e-16
6.70235e-16
6.75171e-16
6.80152e-16
6.85271e-16
6.90675e-16
6.96312e-16
7.02072e-16
7.08296e-16
7.15025e-16
7.21669e-16
7.29122e-16
7.38856e-16
7.45296e-16
7.54886e-16
7.65191e-16
7.79303e-16
7.88608e-16
4.90334e-16
4.97248e-16
5.07788e-16
5.14061e-16
5.21073e-16
5.26683e-16
5.32867e-16
5.38184e-16
5.43241e-16
5.47853e-16
5.52384e-16
5.56357e-16
5.60302e-16
5.64561e-16
5.68407e-16
5.71881e-16
5.75381e-16
5.78902e-16
5.82439e-16
5.85736e-16
5.89195e-16
5.92628e-16
5.96086e-16
5.9954e-16
6.03123e-16
6.06517e-16
6.09804e-16
6.13017e-16
6.16412e-16
6.19931e-16
6.23519e-16
6.27e-16
6.30374e-16
6.33739e-16
6.37128e-16
6.40628e-16
6.43969e-16
6.47345e-16
6.50815e-16
6.54299e-16
6.578e-16
6.61436e-16
6.65179e-16
6.69332e-16
6.73296e-16
6.77343e-16
6.81805e-16
6.86294e-16
6.91818e-16
6.96772e-16
7.02092e-16
7.082e-16
7.17307e-16
7.21236e-16
7.31976e-16
7.38997e-16
5.40223e-16
5.44462e-16
5.50907e-16
5.54458e-16
5.58729e-16
5.62014e-16
5.66043e-16
5.69275e-16
5.71969e-16
5.74161e-16
5.79309e-16
5.81988e-16
5.81903e-16
5.85135e-16
5.87275e-16
5.89336e-16
5.91499e-16
5.93592e-16
5.95644e-16
5.97695e-16
5.99653e-16
6.01737e-16
6.03678e-16
6.05592e-16
6.0752e-16
6.09596e-16
6.11771e-16
6.14105e-16
6.1624e-16
6.18102e-16
6.20009e-16
6.2202e-16
6.24047e-16
6.26131e-16
6.28127e-16
6.30029e-16
6.32096e-16
6.34164e-16
6.36185e-16
6.38235e-16
6.40337e-16
6.42447e-16
6.44609e-16
6.47658e-16
6.47699e-16
6.50455e-16
6.55279e-16
6.5785e-16
6.60266e-16
6.62662e-16
6.68783e-16
6.71302e-16
6.73341e-16
6.77644e-16
6.85573e-16
6.89038e-16
5.90446e-16
5.91906e-16
5.93943e-16
5.95304e-16
5.96917e-16
5.97709e-16
5.99285e-16
6.00371e-16
6.01591e-16
6.02269e-16
6.03782e-16
6.04162e-16
6.04302e-16
6.06363e-16
6.06316e-16
6.06823e-16
6.07594e-16
6.08191e-16
6.08754e-16
6.09472e-16
6.10144e-16
6.10766e-16
6.11406e-16
6.12165e-16
6.12782e-16
6.13448e-16
6.13974e-16
6.14492e-16
6.15111e-16
6.15833e-16
6.165e-16
6.17178e-16
6.17777e-16
6.18384e-16
6.19101e-16
6.19642e-16
6.20347e-16
6.20955e-16
6.2154e-16
6.22234e-16
6.22897e-16
6.23265e-16
6.23388e-16
6.25339e-16
6.25425e-16
6.25942e-16
6.27187e-16
6.27719e-16
6.29469e-16
6.30932e-16
6.31177e-16
6.30375e-16
6.36805e-16
6.36569e-16
6.36763e-16
6.38697e-16
6.40677e-16
6.39548e-16
6.37463e-16
6.36187e-16
6.35236e-16
6.33402e-16
6.32618e-16
6.31276e-16
6.2984e-16
6.29383e-16
6.27672e-16
6.2719e-16
6.27112e-16
6.24959e-16
6.24825e-16
6.24344e-16
6.23533e-16
6.22753e-16
6.22073e-16
6.21372e-16
6.20602e-16
6.19782e-16
6.191e-16
6.18431e-16
6.17699e-16
6.16893e-16
6.1613e-16
6.15209e-16
6.14381e-16
6.13731e-16
6.13034e-16
6.12236e-16
6.11492e-16
6.10666e-16
6.09924e-16
6.09252e-16
6.08451e-16
6.07646e-16
6.06949e-16
6.06169e-16
6.05395e-16
6.0484e-16
6.04727e-16
6.02618e-16
6.02402e-16
6.01851e-16
6.00338e-16
6.00036e-16
5.98056e-16
5.95763e-16
5.97287e-16
5.95687e-16
5.91811e-16
5.88671e-16
5.90815e-16
5.88564e-16
6.90965e-16
6.87428e-16
6.80717e-16
6.76859e-16
6.73498e-16
6.69048e-16
6.66029e-16
6.62558e-16
6.59414e-16
6.57491e-16
6.52332e-16
6.49522e-16
6.49565e-16
6.46267e-16
6.44089e-16
6.41911e-16
6.39645e-16
6.37552e-16
6.35418e-16
6.33198e-16
6.3105e-16
6.29064e-16
6.26802e-16
6.24494e-16
6.22268e-16
6.2013e-16
6.1814e-16
6.16245e-16
6.141e-16
6.11808e-16
6.09434e-16
6.07271e-16
6.05162e-16
6.0309e-16
6.00807e-16
5.98723e-16
5.96498e-16
5.94441e-16
5.92272e-16
5.9006e-16
5.87796e-16
5.85681e-16
5.83324e-16
5.80068e-16
5.80059e-16
5.77423e-16
5.72053e-16
5.69631e-16
5.67294e-16
5.64661e-16
5.5944e-16
5.53137e-16
5.55988e-16
5.50527e-16
5.41482e-16
5.38117e-16
7.4091e-16
7.3436e-16
7.23723e-16
7.17596e-16
7.1138e-16
7.04257e-16
6.99079e-16
6.93484e-16
6.88237e-16
6.83915e-16
6.791e-16
6.74982e-16
6.71064e-16
6.66746e-16
6.62955e-16
6.59207e-16
6.55652e-16
6.52028e-16
6.48524e-16
6.44968e-16
6.41527e-16
6.37952e-16
6.34524e-16
6.31098e-16
6.27711e-16
6.24058e-16
6.20341e-16
6.16486e-16
6.12931e-16
6.09378e-16
6.05982e-16
6.02438e-16
5.98873e-16
5.95275e-16
5.91827e-16
5.88273e-16
5.84806e-16
5.81223e-16
5.77679e-16
5.74083e-16
5.70473e-16
5.66745e-16
5.6295e-16
5.58633e-16
5.54636e-16
5.50417e-16
5.45662e-16
5.41789e-16
5.35731e-16
5.28994e-16
5.26625e-16
5.20217e-16
5.09193e-16
5.01764e-16
4.96173e-16
4.88315e-16
7.90687e-16
7.81822e-16
7.66415e-16
7.57547e-16
7.48953e-16
7.39251e-16
7.31685e-16
7.23998e-16
7.16701e-16
7.1026e-16
7.03925e-16
6.98071e-16
6.9239e-16
6.86899e-16
6.81651e-16
6.76593e-16
6.71551e-16
6.66561e-16
6.61652e-16
6.56809e-16
6.51956e-16
6.46981e-16
6.42116e-16
6.37121e-16
6.32183e-16
6.27214e-16
6.22442e-16
6.17446e-16
6.12561e-16
6.07464e-16
6.02565e-16
5.97481e-16
5.92641e-16
5.87628e-16
5.82883e-16
5.77832e-16
5.73054e-16
5.68028e-16
5.63229e-16
5.58147e-16
5.53175e-16
5.47885e-16
5.42818e-16
5.37146e-16
5.31534e-16
5.25838e-16
5.19299e-16
5.12075e-16
5.06239e-16
4.99221e-16
4.88525e-16
4.77395e-16
4.76276e-16
4.65708e-16
4.46732e-16
4.3838e-16
8.3978e-16
8.27698e-16
8.0861e-16
7.96937e-16
7.85834e-16
7.73707e-16
7.6381e-16
7.5402e-16
7.44801e-16
7.3667e-16
7.28496e-16
7.21034e-16
7.13819e-16
7.07092e-16
7.00225e-16
6.93948e-16
6.87275e-16
6.81285e-16
6.74694e-16
6.68802e-16
6.62155e-16
6.56375e-16
6.49723e-16
6.43866e-16
6.37089e-16
6.31221e-16
6.24305e-16
6.18427e-16
6.11468e-16
6.05602e-16
5.98615e-16
5.92806e-16
5.85981e-16
5.8024e-16
5.73385e-16
5.67713e-16
5.60957e-16
5.55205e-16
5.48406e-16
5.4257e-16
5.35668e-16
5.29609e-16
5.22487e-16
5.15907e-16
5.08449e-16
5.00963e-16
4.92719e-16
4.85694e-16
4.7486e-16
4.63257e-16
4.58373e-16
4.46697e-16
4.28386e-16
4.15868e-16
4.03052e-16
3.89546e-16
8.88354e-16
8.73718e-16
8.49634e-16
8.35189e-16
8.2156e-16
8.06664e-16
7.94892e-16
7.8304e-16
7.71997e-16
7.61908e-16
7.52434e-16
7.43226e-16
7.34834e-16
7.26343e-16
7.18427e-16
7.10307e-16
7.02847e-16
6.94992e-16
6.87691e-16
6.7982e-16
6.72573e-16
6.64772e-16
6.57399e-16
6.4956e-16
6.42169e-16
6.34228e-16
6.26683e-16
6.18686e-16
6.11072e-16
6.03072e-16
5.95521e-16
5.8766e-16
5.80128e-16
5.72305e-16
5.64839e-16
5.57185e-16
5.497e-16
5.42092e-16
5.34613e-16
5.26926e-16
5.19239e-16
5.11417e-16
5.03389e-16
4.9498e-16
4.8627e-16
4.77644e-16
4.67902e-16
4.56586e-16
4.46578e-16
4.38152e-16
4.20572e-16
4.02163e-16
3.99859e-16
3.85369e-16
3.5422e-16
3.40687e-16
9.35947e-16
9.18213e-16
8.89569e-16
8.72918e-16
8.57121e-16
8.39058e-16
8.25112e-16
8.11462e-16
7.98583e-16
7.86802e-16
7.76007e-16
7.65135e-16
7.55487e-16
7.45359e-16
7.36716e-16
7.26966e-16
7.18738e-16
7.08843e-16
7.01042e-16
6.91119e-16
6.83499e-16
6.73212e-16
6.65736e-16
6.55269e-16
6.47835e-16
6.37061e-16
6.29686e-16
6.18561e-16
6.11255e-16
6.00077e-16
5.92974e-16
5.81867e-16
5.74952e-16
5.6399e-16
5.57217e-16
5.46037e-16
5.39251e-16
5.28367e-16
5.21446e-16
5.10484e-16
5.03357e-16
4.92236e-16
4.84544e-16
4.73398e-16
4.65137e-16
4.52999e-16
4.42603e-16
4.31113e-16
4.1944e-16
4.00018e-16
3.91176e-16
3.79771e-16
3.52386e-16
3.31142e-16
3.13803e-16
2.93652e-16
9.8242e-16
9.611e-16
9.29285e-16
9.07512e-16
8.90174e-16
8.70846e-16
8.53903e-16
8.38901e-16
8.24264e-16
8.11477e-16
7.98399e-16
7.87219e-16
7.75511e-16
7.65373e-16
7.53832e-16
7.4437e-16
7.33188e-16
7.24288e-16
7.12775e-16
7.04123e-16
6.92385e-16
6.83927e-16
6.71999e-16
6.63411e-16
6.5126e-16
6.4265e-16
6.30148e-16
6.21383e-16
6.08608e-16
5.99908e-16
5.87157e-16
5.78642e-16
5.66154e-16
5.57736e-16
5.45445e-16
5.37446e-16
5.25519e-16
5.16983e-16
5.05171e-16
4.96804e-16
4.85079e-16
4.76273e-16
4.6435e-16
4.5463e-16
4.41901e-16
4.31124e-16
4.18507e-16
4.05322e-16
3.89223e-16
3.78216e-16
3.60595e-16
3.3081e-16
3.25384e-16
3.08124e-16
2.66876e-16
2.46719e-16
1.02754e-15
1.00287e-15
9.6544e-16
9.41819e-16
9.21033e-16
8.99363e-16
8.80849e-16
8.64015e-16
8.47845e-16
8.33614e-16
8.19564e-16
8.0704e-16
7.93897e-16
7.82655e-16
7.70096e-16
7.5975e-16
7.47006e-16
7.37209e-16
7.24304e-16
7.14843e-16
7.0146e-16
6.92297e-16
6.78287e-16
6.69472e-16
6.55046e-16
6.46382e-16
6.31327e-16
6.22594e-16
6.0699e-16
5.98463e-16
5.82736e-16
5.74796e-16
5.59414e-16
5.51768e-16
5.36346e-16
5.28989e-16
5.13366e-16
5.06293e-16
4.9143e-16
4.83886e-16
4.68616e-16
4.61023e-16
4.45916e-16
4.37082e-16
4.21817e-16
4.12051e-16
3.94951e-16
3.82782e-16
3.65929e-16
3.48726e-16
3.2738e-16
3.14757e-16
2.88096e-16
2.56511e-16
2.27857e-16
2.02186e-16
1.07116e-15
1.04429e-15
9.99798e-16
9.76679e-16
9.51362e-16
9.27126e-16
9.08308e-16
8.88826e-16
8.72082e-16
8.55993e-16
8.42111e-16
8.26921e-16
8.14922e-16
8.00504e-16
7.8967e-16
7.75104e-16
7.65092e-16
7.49901e-16
7.40599e-16
7.24544e-16
7.15749e-16
6.98811e-16
6.90389e-16
6.72753e-16
6.64557e-16
6.46273e-16
6.37978e-16
6.18872e-16
6.11045e-16
5.9164e-16
5.84475e-16
5.65655e-16
5.58914e-16
5.39965e-16
5.33063e-16
5.13746e-16
5.0719e-16
4.89033e-16
4.81255e-16
4.63267e-16
4.55845e-16
4.38053e-16
4.29885e-16
4.12685e-16
4.03264e-16
3.85509e-16
3.73662e-16
3.55629e-16
3.4101e-16
3.20066e-16
3.03201e-16
2.7529e-16
2.501e-16
2.35827e-16
1.8482e-16
1.58307e-16
1.11227e-15
1.08059e-15
1.02746e-15
1.00372e-15
9.77079e-16
9.51529e-16
9.30956e-16
9.11078e-16
8.93082e-16
8.76671e-16
8.61056e-16
8.46135e-16
8.32189e-16
8.17959e-16
8.04471e-16
7.90567e-16
7.77658e-16
7.63492e-16
7.50651e-16
7.36178e-16
7.23293e-16
7.0852e-16
6.957e-16
6.80338e-16
6.68128e-16
6.52844e-16
6.39717e-16
6.22238e-16
6.07985e-16
5.90242e-16
5.76789e-16
5.59984e-16
5.47614e-16
5.31485e-16
5.20031e-16
5.04555e-16
4.93322e-16
4.76731e-16
4.66228e-16
4.51396e-16
4.40783e-16
4.24986e-16
4.13666e-16
3.9757e-16
3.85279e-16
3.68523e-16
3.55329e-16
3.36949e-16
3.19994e-16
2.98149e-16
2.80389e-16
2.53925e-16
2.27645e-16
1.99599e-16
1.49376e-16
1.17573e-16
1.15123e-15
1.11582e-15
1.05989e-15
1.02904e-15
1.0014e-15
9.73731e-16
9.506e-16
9.31137e-16
9.1158e-16
8.95045e-16
8.77905e-16
8.63696e-16
8.47323e-16
8.34665e-16
8.18309e-16
8.06549e-16
7.8946e-16
7.78347e-16
7.60135e-16
7.49634e-16
7.30088e-16
7.19955e-16
6.99415e-16
6.9004e-16
6.70129e-16
6.62766e-16
6.39227e-16
6.27498e-16
6.01684e-16
5.90641e-16
5.66547e-16
5.61921e-16
5.40967e-16
5.33755e-16
5.09913e-16
5.02703e-16
4.79321e-16
4.72574e-16
4.50824e-16
4.42053e-16
4.19943e-16
4.12853e-16
3.92126e-16
3.83345e-16
3.63147e-16
3.52853e-16
3.31529e-16
3.18121e-16
2.96748e-16
2.79524e-16
2.53072e-16
2.26758e-16
2.01485e-16
1.69081e-16
1.1442e-16
7.87251e-17
1.19024e-15
1.1472e-15
1.08547e-15
1.05187e-15
1.0237e-15
9.97463e-16
9.74702e-16
9.54135e-16
9.35589e-16
9.18274e-16
9.02017e-16
8.86095e-16
8.70846e-16
8.55454e-16
8.40525e-16
8.25031e-16
8.0986e-16
7.94023e-16
7.78429e-16
7.6191e-16
7.45786e-16
7.28644e-16
7.11276e-16
6.90911e-16
6.71441e-16
6.53035e-16
6.34929e-16
6.19902e-16
6.10186e-16
5.95063e-16
5.76875e-16
5.57805e-16
5.37959e-16
5.17619e-16
5.00559e-16
4.8338e-16
4.67449e-16
4.50894e-16
4.35112e-16
4.19844e-16
4.05151e-16
3.89547e-16
3.74399e-16
3.59148e-16
3.43813e-16
3.27981e-16
3.11662e-16
2.94452e-16
2.75553e-16
2.55195e-16
2.32812e-16
2.06508e-16
1.77528e-16
1.44257e-16
8.30272e-17
3.97915e-17
1.22144e-15
1.15736e-15
1.10182e-15
1.06637e-15
1.0366e-15
1.01073e-15
9.88307e-16
9.6824e-16
9.49914e-16
9.32739e-16
9.16419e-16
9.00535e-16
8.85004e-16
8.69438e-16
8.53924e-16
8.38091e-16
8.22162e-16
8.0574e-16
7.89182e-16
7.72041e-16
7.54808e-16
7.36926e-16
7.19767e-16
7.0673e-16
6.96893e-16
6.83594e-16
6.62604e-16
6.31981e-16
5.97757e-16
5.67168e-16
5.46291e-16
5.33011e-16
5.23222e-16
5.101e-16
4.93008e-16
4.75011e-16
4.57855e-16
4.40597e-16
4.24076e-16
4.07553e-16
3.91692e-16
3.75703e-16
3.60277e-16
3.44612e-16
3.29142e-16
3.13147e-16
2.96908e-16
2.79653e-16
2.61336e-16
2.41189e-16
2.18863e-16
1.92995e-16
1.63195e-16
1.27804e-16
7.23438e-17
8.35326e-18
)
;

boundaryField
{
    top
    {
        type            zeroGradient;
    }
    bottom
    {
        type            zeroGradient;
    }
    rotatingWall
    {
        type            zeroGradient;
    }
    wall
    {
        type            zeroGradient;
    }
    frontAndBack
    {
        type            empty;
    }
}


// ************************************************************************* //
