/*--------------------------------*- C++ -*----------------------------------*\
| =========                 |                                                 |
| \\      /  F ield         | OpenFOAM: The Open Source CFD Toolbox           |
|  \\    /   O peration     | Version:  5.0                                   |
|   \\  /    A nd           | Web:      www.OpenFOAM.org                      |
|    \\/     M anipulation  |                                                 |
\*---------------------------------------------------------------------------*/
FoamFile
{
    version     2.0;
    format      ascii;
    class       volVectorField;
    location    "307";
    object      U;
}
// * * * * * * * * * * * * * * * * * * * * * * * * * * * * * * * * * * * * * //

dimensions      [0 1 -1 0 0 0 0];

internalField   nonuniform List<vector> 
1568
(
(-3.57284e-16 -1.4468e-14 0)
(2.95842e-14 -2.64608e-14 0)
(9.84888e-14 -4.41431e-14 0)
(1.92278e-13 -5.18489e-14 0)
(2.96845e-13 -5.73029e-14 0)
(4.17752e-13 -6.68539e-14 0)
(5.52809e-13 -7.17079e-14 0)
(6.95423e-13 -7.54589e-14 0)
(8.45306e-13 -7.8982e-14 0)
(1.00063e-12 -8.09918e-14 0)
(1.15869e-12 -8.19568e-14 0)
(1.31773e-12 -8.20902e-14 0)
(1.47622e-12 -8.13321e-14 0)
(1.63247e-12 -7.97558e-14 0)
(1.78494e-12 -7.75011e-14 0)
(1.9323e-12 -7.45182e-14 0)
(2.07323e-12 -7.08973e-14 0)
(2.20657e-12 -6.67145e-14 0)
(2.33123e-12 -6.20011e-14 0)
(2.44626e-12 -5.67968e-14 0)
(2.55077e-12 -5.11546e-14 0)
(2.64403e-12 -4.51539e-14 0)
(2.72545e-12 -3.86638e-14 0)
(2.79379e-12 -3.07038e-14 0)
(2.84913e-12 -2.21893e-14 0)
(2.89164e-12 -1.4605e-14 0)
(2.92091e-12 -7.34291e-15 0)
(2.93545e-12 -1.96926e-15 0)
(2.93549e-12 1.94788e-15 0)
(2.92109e-12 7.23037e-15 0)
(2.89198e-12 1.44753e-14 0)
(2.84963e-12 2.20367e-14 0)
(2.7944e-12 3.06038e-14 0)
(2.72621e-12 3.85458e-14 0)
(2.64498e-12 4.50723e-14 0)
(2.55193e-12 5.10277e-14 0)
(2.44761e-12 5.67177e-14 0)
(2.33275e-12 6.18736e-14 0)
(2.2083e-12 6.6648e-14 0)
(2.07512e-12 7.08372e-14 0)
(1.93432e-12 7.44676e-14 0)
(1.78713e-12 7.73989e-14 0)
(1.63483e-12 7.97047e-14 0)
(1.47873e-12 8.12516e-14 0)
(1.3204e-12 8.20127e-14 0)
(1.16145e-12 8.18597e-14 0)
(1.00362e-12 8.08202e-14 0)
(8.48769e-13 7.87625e-14 0)
(6.98889e-13 7.56933e-14 0)
(5.56078e-13 7.13352e-14 0)
(4.22802e-13 6.57431e-14 0)
(3.01609e-13 5.90369e-14 0)
(1.95532e-13 5.02605e-14 0)
(1.06376e-13 4.07474e-14 0)
(4.18581e-14 2.70093e-14 0)
(5.55109e-15 1.12294e-14 0)
(1.11255e-15 -3.88264e-14 0)
(3.10928e-14 -8.24056e-14 0)
(9.06559e-14 -1.17943e-13 0)
(1.67397e-13 -1.45298e-13 0)
(2.69651e-13 -1.70948e-13 0)
(3.82783e-13 -1.89945e-13 0)
(5.06206e-13 -2.0545e-13 0)
(6.40014e-13 -2.17771e-13 0)
(7.80023e-13 -2.26729e-13 0)
(9.24299e-13 -2.32556e-13 0)
(1.07137e-12 -2.3542e-13 0)
(1.21976e-12 -2.35752e-13 0)
(1.36741e-12 -2.33643e-13 0)
(1.5128e-12 -2.29181e-13 0)
(1.65477e-12 -2.22558e-13 0)
(1.79189e-12 -2.1402e-13 0)
(1.92301e-12 -2.03607e-13 0)
(2.04706e-12 -1.91528e-13 0)
(2.16304e-12 -1.77905e-13 0)
(2.27e-12 -1.62961e-13 0)
(2.36715e-12 -1.46748e-13 0)
(2.45373e-12 -1.29488e-13 0)
(2.52919e-12 -1.11326e-13 0)
(2.59296e-12 -9.25698e-14 0)
(2.64489e-12 -7.40124e-14 0)
(2.68448e-12 -5.48879e-14 0)
(2.7114e-12 -3.39867e-14 0)
(2.72487e-12 -1.15308e-14 0)
(2.72496e-12 1.1339e-14 0)
(2.71157e-12 3.38207e-14 0)
(2.68466e-12 5.47737e-14 0)
(2.64511e-12 7.39507e-14 0)
(2.59341e-12 9.25331e-14 0)
(2.52994e-12 1.11297e-13 0)
(2.45475e-12 1.29449e-13 0)
(2.36832e-12 1.46683e-13 0)
(2.27137e-12 1.62896e-13 0)
(2.16464e-12 1.77807e-13 0)
(2.04882e-12 1.91404e-13 0)
(1.92499e-12 2.03421e-13 0)
(1.79404e-12 2.13777e-13 0)
(1.65695e-12 2.22279e-13 0)
(1.51503e-12 2.28895e-13 0)
(1.3697e-12 2.33303e-13 0)
(1.22225e-12 2.35459e-13 0)
(1.07424e-12 2.35125e-13 0)
(9.27266e-13 2.32154e-13 0)
(7.83125e-13 2.26273e-13 0)
(6.43664e-13 2.17311e-13 0)
(5.10914e-13 2.05047e-13 0)
(3.87085e-13 1.89178e-13 0)
(2.7456e-13 1.68888e-13 0)
(1.76177e-13 1.44845e-13 0)
(9.58094e-14 1.14584e-13 0)
(3.83115e-14 7.70984e-14 0)
(1.68695e-15 3.21615e-14 0)
(-6.59038e-16 -5.25617e-14 0)
(2.74952e-14 -1.25111e-13 0)
(7.73424e-14 -1.87842e-13 0)
(1.5383e-13 -2.34715e-13 0)
(2.4111e-13 -2.73421e-13 0)
(3.45611e-13 -3.06354e-13 0)
(4.61143e-13 -3.31235e-13 0)
(5.84028e-13 -3.50998e-13 0)
(7.13318e-13 -3.65488e-13 0)
(8.47468e-13 -3.74817e-13 0)
(9.83921e-13 -3.7948e-13 0)
(1.12107e-12 -3.7992e-13 0)
(1.25784e-12 -3.76421e-13 0)
(1.39268e-12 -3.69183e-13 0)
(1.52411e-12 -3.58576e-13 0)
(1.65109e-12 -3.44744e-13 0)
(1.77256e-12 -3.27972e-13 0)
(1.88742e-12 -3.08506e-13 0)
(1.99476e-12 -2.86589e-13 0)
(2.09378e-12 -2.62437e-13 0)
(2.18372e-12 -2.36304e-13 0)
(2.26393e-12 -2.08411e-13 0)
(2.33379e-12 -1.79016e-13 0)
(2.39295e-12 -1.48487e-13 0)
(2.44087e-12 -1.17192e-13 0)
(2.47696e-12 -8.50255e-14 0)
(2.5011e-12 -5.16207e-14 0)
(2.51327e-12 -1.73819e-14 0)
(2.51328e-12 1.71438e-14 0)
(2.50118e-12 5.1391e-14 0)
(2.47717e-12 8.4926e-14 0)
(2.44125e-12 1.17203e-13 0)
(2.39347e-12 1.48661e-13 0)
(2.33446e-12 1.79204e-13 0)
(2.26477e-12 2.08625e-13 0)
(2.1848e-12 2.364e-13 0)
(2.09501e-12 2.62538e-13 0)
(1.99614e-12 2.86566e-13 0)
(1.88901e-12 3.08413e-13 0)
(1.77427e-12 3.27741e-13 0)
(1.6529e-12 3.44392e-13 0)
(1.52603e-12 3.58091e-13 0)
(1.39467e-12 3.68707e-13 0)
(1.25997e-12 3.75875e-13 0)
(1.12336e-12 3.79388e-13 0)
(9.86208e-13 3.78896e-13 0)
(8.50021e-13 3.74094e-13 0)
(7.16414e-13 3.64632e-13 0)
(5.87303e-13 3.50238e-13 0)
(4.64543e-13 3.30196e-13 0)
(3.4969e-13 3.0434e-13 0)
(2.46504e-13 2.7222e-13 0)
(1.57079e-13 2.31896e-13 0)
(8.24095e-14 1.82785e-13 0)
(3.14284e-14 1.22575e-13 0)
(5.00159e-16 4.93855e-14 0)
(-1.12706e-15 -6.32827e-14 0)
(2.68084e-14 -1.67152e-13 0)
(6.98045e-14 -2.44775e-13 0)
(1.34674e-13 -3.13551e-13 0)
(2.1714e-13 -3.67113e-13 0)
(3.11531e-13 -4.10421e-13 0)
(4.16316e-13 -4.45386e-13 0)
(5.28932e-13 -4.72493e-13 0)
(6.4801e-13 -4.91852e-13 0)
(7.71056e-13 -5.04396e-13 0)
(8.96337e-13 -5.10949e-13 0)
(1.02273e-12 -5.11553e-13 0)
(1.14858e-12 -5.06744e-13 0)
(1.27244e-12 -4.97039e-13 0)
(1.3934e-12 -4.82689e-13 0)
(1.51027e-12 -4.63984e-13 0)
(1.62195e-12 -4.41386e-13 0)
(1.72758e-12 -4.15123e-13 0)
(1.82634e-12 -3.85601e-13 0)
(1.91741e-12 -3.53066e-13 0)
(2.00011e-12 -3.17905e-13 0)
(2.07385e-12 -2.80374e-13 0)
(2.1381e-12 -2.409e-13 0)
(2.1924e-12 -1.99725e-13 0)
(2.23626e-12 -1.57377e-13 0)
(2.26921e-12 -1.13719e-13 0)
(2.29112e-12 -6.88818e-14 0)
(2.30209e-12 -2.31178e-14 0)
(2.30215e-12 2.28256e-14 0)
(2.29133e-12 6.86582e-14 0)
(2.26952e-12 1.13587e-13 0)
(2.23665e-12 1.57363e-13 0)
(2.19291e-12 1.99781e-13 0)
(2.13874e-12 2.40999e-13 0)
(2.07457e-12 2.80452e-13 0)
(2.00092e-12 3.17964e-13 0)
(1.91837e-12 3.53003e-13 0)
(1.82743e-12 3.85509e-13 0)
(1.72877e-12 4.14919e-13 0)
(1.62326e-12 4.41049e-13 0)
(1.51171e-12 4.63527e-13 0)
(1.39496e-12 4.82161e-13 0)
(1.27409e-12 4.9643e-13 0)
(1.15025e-12 5.06201e-13 0)
(1.02458e-12 5.10906e-13 0)
(8.98384e-13 5.10261e-13 0)
(7.73093e-13 5.03783e-13 0)
(6.50394e-13 4.91008e-13 0)
(5.31656e-13 4.71334e-13 0)
(4.18973e-13 4.44388e-13 0)
(3.14869e-13 4.09187e-13 0)
(2.20128e-13 3.64884e-13 0)
(1.37958e-13 3.10122e-13 0)
(7.2806e-14 2.43472e-13 0)
(2.73354e-14 1.61271e-13 0)
(5.31309e-16 6.3337e-14 0)
(1.28225e-15 -7.56252e-14 0)
(2.1838e-14 -1.96999e-13 0)
(6.22245e-14 -2.9966e-13 0)
(1.20566e-13 -3.81519e-13 0)
(1.93443e-13 -4.49905e-13 0)
(2.78271e-13 -5.04994e-13 0)
(3.72876e-13 -5.48919e-13 0)
(4.75036e-13 -5.82513e-13 0)
(5.83237e-13 -6.06772e-13 0)
(6.95216e-13 -6.227e-13 0)
(8.09361e-13 -6.30752e-13 0)
(9.24446e-13 -6.31566e-13 0)
(1.03905e-12 -6.25767e-13 0)
(1.15207e-12 -6.13739e-13 0)
(1.26237e-12 -5.95887e-13 0)
(1.36888e-12 -5.72815e-13 0)
(1.47073e-12 -5.44807e-13 0)
(1.56705e-12 -5.12352e-13 0)
(1.65702e-12 -4.75813e-13 0)
(1.74002e-12 -4.35675e-13 0)
(1.8154e-12 -3.92226e-13 0)
(1.88257e-12 -3.45952e-13 0)
(1.94106e-12 -2.97181e-13 0)
(1.99042e-12 -2.46397e-13 0)
(2.03026e-12 -1.93855e-13 0)
(2.06023e-12 -1.39893e-13 0)
(2.0802e-12 -8.45744e-14 0)
(2.09021e-12 -2.83968e-14 0)
(2.09026e-12 2.81347e-14 0)
(2.08036e-12 8.43258e-14 0)
(2.06053e-12 1.39655e-13 0)
(2.03067e-12 1.93665e-13 0)
(1.99087e-12 2.46211e-13 0)
(1.94152e-12 2.97001e-13 0)
(1.8831e-12 3.4573e-13 0)
(1.816e-12 3.92e-13 0)
(1.74072e-12 4.35416e-13 0)
(1.65783e-12 4.75497e-13 0)
(1.56791e-12 5.1197e-13 0)
(1.47166e-12 5.44359e-13 0)
(1.36991e-12 5.7229e-13 0)
(1.26351e-12 5.95313e-13 0)
(1.15337e-12 6.13133e-13 0)
(1.04044e-12 6.25156e-13 0)
(9.25846e-13 6.3101e-13 0)
(8.10896e-13 6.30145e-13 0)
(6.96798e-13 6.22053e-13 0)
(5.84941e-13 6.06113e-13 0)
(4.7727e-13 5.81714e-13 0)
(3.75264e-13 5.47962e-13 0)
(2.80109e-13 5.03871e-13 0)
(1.95434e-13 4.48561e-13 0)
(1.23225e-13 3.80319e-13 0)
(6.29476e-14 2.96581e-13 0)
(2.30408e-14 1.95428e-13 0)
(2.06289e-16 7.53161e-14 0)
(-1.44159e-16 -8.63295e-14 0)
(2.00461e-14 -2.25885e-13 0)
(5.45015e-14 -3.45066e-13 0)
(1.06439e-13 -4.4346e-13 0)
(1.70685e-13 -5.2455e-13 0)
(2.46299e-13 -5.90128e-13 0)
(3.30731e-13 -6.42405e-13 0)
(4.22305e-13 -6.82299e-13 0)
(5.19355e-13 -7.11127e-13 0)
(6.19904e-13 -7.30102e-13 0)
(7.22612e-13 -7.39769e-13 0)
(8.26268e-13 -7.40864e-13 0)
(9.29565e-13 -7.34041e-13 0)
(1.03142e-12 -7.19888e-13 0)
(1.13082e-12 -6.99009e-13 0)
(1.22685e-12 -6.71873e-13 0)
(1.31867e-12 -6.38994e-13 0)
(1.40548e-12 -6.00907e-13 0)
(1.48658e-12 -5.58061e-13 0)
(1.56136e-12 -5.10904e-13 0)
(1.62926e-12 -4.59946e-13 0)
(1.68975e-12 -4.05631e-13 0)
(1.74239e-12 -3.48404e-13 0)
(1.78681e-12 -2.8871e-13 0)
(1.82264e-12 -2.26965e-13 0)
(1.84961e-12 -1.63528e-13 0)
(1.86764e-12 -9.87602e-14 0)
(1.87668e-12 -3.31186e-14 0)
(1.87672e-12 3.28134e-14 0)
(1.86779e-12 9.84823e-14 0)
(1.84985e-12 1.63269e-13 0)
(1.82292e-12 2.26679e-13 0)
(1.78713e-12 2.88397e-13 0)
(1.74274e-12 3.48088e-13 0)
(1.69012e-12 4.05316e-13 0)
(1.62968e-12 4.59615e-13 0)
(1.56181e-12 5.10558e-13 0)
(1.48707e-12 5.57654e-13 0)
(1.40601e-12 6.00451e-13 0)
(1.31927e-12 6.38506e-13 0)
(1.22754e-12 6.71341e-13 0)
(1.13162e-12 6.98456e-13 0)
(1.0323e-12 7.19332e-13 0)
(9.30517e-13 7.33447e-13 0)
(8.2731e-13 7.40273e-13 0)
(7.2373e-13 7.39201e-13 0)
(6.21021e-13 7.29544e-13 0)
(5.20693e-13 7.10626e-13 0)
(4.23806e-13 6.8165e-13 0)
(3.321e-13 6.41535e-13 0)
(2.48226e-13 5.89327e-13 0)
(1.72461e-13 5.23646e-13 0)
(1.06694e-13 4.42446e-13 0)
(5.56903e-14 3.43946e-13 0)
(2.0851e-14 2.2549e-13 0)
(2.41257e-16 8.5725e-14 0)
(-1.66826e-16 -9.46239e-14 0)
(1.78125e-14 -2.51633e-13 0)
(4.76178e-14 -3.85349e-13 0)
(9.26647e-14 -4.97684e-13 0)
(1.49081e-13 -5.90164e-13 0)
(2.1522e-13 -6.65388e-13 0)
(2.89524e-13 -7.25217e-13 0)
(3.70492e-13 -7.70995e-13 0)
(4.56222e-13 -8.04229e-13 0)
(5.45202e-13 -8.26041e-13 0)
(6.36323e-13 -8.37146e-13 0)
(7.28321e-13 -8.38484e-13 0)
(8.20021e-13 -8.30845e-13 0)
(9.1047e-13 -8.14883e-13 0)
(9.988e-13 -7.91233e-13 0)
(1.08415e-12 -7.605e-13 0)
(1.16572e-12 -7.23298e-13 0)
(1.24283e-12 -6.80158e-13 0)
(1.3149e-12 -6.31635e-13 0)
(1.38134e-12 -5.78248e-13 0)
(1.44163e-12 -5.20544e-13 0)
(1.49535e-12 -4.59027e-13 0)
(1.54209e-12 -3.94194e-13 0)
(1.58149e-12 -3.26546e-13 0)
(1.61328e-12 -2.56589e-13 0)
(1.63723e-12 -1.84737e-13 0)
(1.65323e-12 -1.11485e-13 0)
(1.66126e-12 -3.73557e-14 0)
(1.66132e-12 3.70718e-14 0)
(1.65336e-12 1.11189e-13 0)
(1.6374e-12 1.84417e-13 0)
(1.61347e-12 2.56239e-13 0)
(1.5817e-12 3.26173e-13 0)
(1.54229e-12 3.93781e-13 0)
(1.49555e-12 4.58593e-13 0)
(1.44185e-12 5.20085e-13 0)
(1.38156e-12 5.77767e-13 0)
(1.31514e-12 6.31141e-13 0)
(1.2431e-12 6.79661e-13 0)
(1.16601e-12 7.22801e-13 0)
(1.0845e-12 7.60015e-13 0)
(9.99256e-13 7.90743e-13 0)
(9.11025e-13 8.14392e-13 0)
(8.20622e-13 8.30387e-13 0)
(7.28962e-13 8.38049e-13 0)
(6.37074e-13 8.36695e-13 0)
(5.46009e-13 8.25594e-13 0)
(4.56973e-13 8.03884e-13 0)
(3.71474e-13 7.70587e-13 0)
(2.90858e-13 7.24765e-13 0)
(2.16093e-13 6.64952e-13 0)
(1.49877e-13 5.89595e-13 0)
(9.40422e-14 4.97318e-13 0)
(4.77422e-14 3.8542e-13 0)
(1.71223e-14 2.51138e-13 0)
(2.35931e-16 9.48653e-14 0)
(2.74951e-16 -1.02262e-13 0)
(1.51028e-14 -2.7324e-13 0)
(4.07639e-14 -4.20596e-13 0)
(7.93304e-14 -5.4454e-13 0)
(1.27892e-13 -6.4728e-13 0)
(1.85044e-13 -7.31007e-13 0)
(2.49363e-13 -7.97544e-13 0)
(3.19431e-13 -8.48706e-13 0)
(3.93756e-13 -8.85914e-13 0)
(4.71153e-13 -9.1022e-13 0)
(5.50501e-13 -9.2272e-13 0)
(6.30583e-13 -9.24399e-13 0)
(7.10475e-13 -9.1607e-13 0)
(7.89356e-13 -8.98504e-13 0)
(8.66383e-13 -8.72427e-13 0)
(9.40793e-13 -8.38553e-13 0)
(1.01194e-12 -7.97516e-13 0)
(1.07921e-12 -7.49919e-13 0)
(1.14205e-12 -6.96377e-13 0)
(1.19998e-12 -6.37498e-13 0)
(1.25255e-12 -5.73837e-13 0)
(1.29938e-12 -5.05957e-13 0)
(1.34011e-12 -4.34446e-13 0)
(1.37445e-12 -3.59828e-13 0)
(1.40215e-12 -2.82643e-13 0)
(1.42303e-12 -2.03428e-13 0)
(1.437e-12 -1.22718e-13 0)
(1.44401e-12 -4.10844e-14 0)
(1.44402e-12 4.08518e-14 0)
(1.43705e-12 1.22456e-13 0)
(1.42311e-12 2.03128e-13 0)
(1.40222e-12 2.82295e-13 0)
(1.37451e-12 3.59432e-13 0)
(1.34017e-12 4.34004e-13 0)
(1.29943e-12 5.05483e-13 0)
(1.2526e-12 5.73334e-13 0)
(1.20003e-12 6.36979e-13 0)
(1.14212e-12 6.9586e-13 0)
(1.07928e-12 7.49398e-13 0)
(1.01203e-12 7.97009e-13 0)
(9.40928e-13 8.38075e-13 0)
(8.66571e-13 8.71975e-13 0)
(7.89622e-13 8.98058e-13 0)
(7.10794e-13 9.15633e-13 0)
(6.3091e-13 9.23988e-13 0)
(5.50857e-13 9.22343e-13 0)
(4.71605e-13 9.09843e-13 0)
(3.94349e-13 8.85576e-13 0)
(3.20034e-13 8.48496e-13 0)
(2.49912e-13 7.97281e-13 0)
(1.86064e-13 7.30663e-13 0)
(1.28954e-13 6.47231e-13 0)
(7.94519e-14 5.44514e-13 0)
(4.10784e-14 4.20617e-13 0)
(1.53282e-14 2.73652e-13 0)
(7.45982e-17 1.02568e-13 0)
(7.03191e-17 -1.09031e-13 0)
(1.2558e-14 -2.92052e-13 0)
(3.40833e-14 -4.50809e-13 0)
(6.64768e-14 -5.84751e-13 0)
(1.07397e-13 -6.96138e-13 0)
(1.55594e-13 -7.87172e-13 0)
(2.09859e-13 -8.59797e-13 0)
(2.69067e-13 -9.15697e-13 0)
(3.3208e-13 -9.56296e-13 0)
(3.97737e-13 -9.82856e-13 0)
(4.65047e-13 -9.9665e-13 0)
(5.33107e-13 -9.98644e-13 0)
(6.01057e-13 -9.89734e-13 0)
(6.68138e-13 -9.70809e-13 0)
(7.33658e-13 -9.42684e-13 0)
(7.96967e-13 -9.06086e-13 0)
(8.57508e-13 -8.61726e-13 0)
(9.14753e-13 -8.10283e-13 0)
(9.68217e-13 -7.5242e-13 0)
(1.0175e-12 -6.88757e-13 0)
(1.06223e-12 -6.19937e-13 0)
(1.10205e-12 -5.46568e-13 0)
(1.13669e-12 -4.69257e-13 0)
(1.16589e-12 -3.88597e-13 0)
(1.18945e-12 -3.0518e-13 0)
(1.20721e-12 -2.19598e-13 0)
(1.2191e-12 -1.32444e-13 0)
(1.22506e-12 -4.43317e-14 0)
(1.22507e-12 4.41012e-14 0)
(1.21911e-12 1.32223e-13 0)
(1.20721e-12 2.19369e-13 0)
(1.18943e-12 3.04925e-13 0)
(1.16585e-12 3.8831e-13 0)
(1.13662e-12 4.68934e-13 0)
(1.10196e-12 5.46208e-13 0)
(1.06213e-12 6.19546e-13 0)
(1.01739e-12 6.88344e-13 0)
(9.68094e-13 7.51971e-13 0)
(9.14626e-13 8.09823e-13 0)
(8.57399e-13 8.6126e-13 0)
(7.96887e-13 9.05621e-13 0)
(7.33611e-13 9.42222e-13 0)
(6.68135e-13 9.7035e-13 0)
(6.01083e-13 9.89263e-13 0)
(5.33169e-13 9.98181e-13 0)
(4.65169e-13 9.96232e-13 0)
(3.97903e-13 9.82481e-13 0)
(3.32312e-13 9.55915e-13 0)
(2.69443e-13 9.15366e-13 0)
(2.10392e-13 8.59586e-13 0)
(1.56041e-13 7.8706e-13 0)
(1.07914e-13 6.95904e-13 0)
(6.73986e-14 5.84705e-13 0)
(3.42553e-14 4.51076e-13 0)
(1.22928e-14 2.92159e-13 0)
(1.1658e-16 1.09137e-13 0)
(-1.2057e-17 -1.14458e-13 0)
(1.02245e-14 -3.07586e-13 0)
(2.76197e-14 -4.75668e-13 0)
(5.40285e-14 -6.17904e-13 0)
(8.7364e-14 -7.3664e-13 0)
(1.26614e-13 -8.3387e-13 0)
(1.70912e-13 -9.11592e-13 0)
(2.19392e-13 -9.71425e-13 0)
(2.71025e-13 -1.01491e-12 0)
(3.24832e-13 -1.04351e-12 0)
(3.80058e-13 -1.05842e-12 0)
(4.35944e-13 -1.06066e-12 0)
(4.91765e-13 -1.05131e-12 0)
(5.46883e-13 -1.03129e-12 0)
(6.00733e-13 -1.00145e-12 0)
(6.5278e-13 -9.62585e-13 0)
(7.02547e-13 -9.15452e-13 0)
(7.49604e-13 -8.60794e-13 0)
(7.93571e-13 -7.99301e-13 0)
(8.34089e-13 -7.3165e-13 0)
(8.70845e-13 -6.58509e-13 0)
(9.03584e-13 -5.80546e-13 0)
(9.32055e-13 -4.98383e-13 0)
(9.56043e-13 -4.12681e-13 0)
(9.75393e-13 -3.2406e-13 0)
(9.89989e-13 -2.33148e-13 0)
(9.99759e-13 -1.40579e-13 0)
(1.00466e-12 -4.70137e-14 0)
(1.00467e-12 4.68785e-14 0)
(9.99766e-13 1.40429e-13 0)
(9.89962e-13 2.32971e-13 0)
(9.75313e-13 3.23865e-13 0)
(9.55909e-13 4.12457e-13 0)
(9.31876e-13 4.98131e-13 0)
(9.03374e-13 5.80256e-13 0)
(8.70611e-13 6.58183e-13 0)
(8.33822e-13 7.31281e-13 0)
(7.93284e-13 7.98904e-13 0)
(7.49316e-13 8.60379e-13 0)
(7.02259e-13 9.15027e-13 0)
(6.52501e-13 9.62147e-13 0)
(6.00473e-13 1.001e-12 0)
(5.46652e-13 1.03084e-12 0)
(4.91559e-13 1.05086e-12 0)
(4.35775e-13 1.06022e-12 0)
(3.79934e-13 1.05798e-12 0)
(3.24742e-13 1.04312e-12 0)
(2.71081e-13 1.01458e-12 0)
(2.19593e-13 9.71128e-13 0)
(1.71132e-13 9.11314e-13 0)
(1.27103e-13 8.33695e-13 0)
(8.80402e-14 7.36712e-13 0)
(5.42806e-14 6.17937e-13 0)
(2.78297e-14 4.75583e-13 0)
(1.03167e-14 3.079e-13 0)
(3.58744e-17 1.14485e-13 0)
(2.00618e-17 -1.18739e-13 0)
(7.90856e-15 -3.19962e-13 0)
(2.14006e-14 -4.95429e-13 0)
(4.17997e-14 -6.44374e-13 0)
(6.76356e-14 -7.6896e-13 0)
(9.81356e-14 -8.7114e-13 0)
(1.32557e-13 -9.52877e-13 0)
(1.70313e-13 -1.0159e-12 0)
(2.1049e-13 -1.06181e-12 0)
(2.52354e-13 -1.09204e-12 0)
(2.95458e-13 -1.10787e-12 0)
(3.39065e-13 -1.11038e-12 0)
(3.82604e-13 -1.10067e-12 0)
(4.25623e-13 -1.0798e-12 0)
(4.67678e-13 -1.04859e-12 0)
(5.08323e-13 -1.00791e-12 0)
(5.47184e-13 -9.58551e-13 0)
(5.8393e-13 -9.01302e-13 0)
(6.18257e-13 -8.36883e-13 0)
(6.499e-13 -7.66039e-13 0)
(6.78606e-13 -6.89434e-13 0)
(7.04159e-13 -6.0778e-13 0)
(7.26375e-13 -5.21747e-13 0)
(7.45099e-13 -4.32003e-13 0)
(7.60211e-13 -3.39196e-13 0)
(7.71618e-13 -2.44004e-13 0)
(7.79255e-13 -1.47088e-13 0)
(7.83074e-13 -4.91472e-14 0)
(7.83053e-13 4.91305e-14 0)
(7.79193e-13 1.47039e-13 0)
(7.71521e-13 2.43906e-13 0)
(7.6007e-13 3.3905e-13 0)
(7.44902e-13 4.31816e-13 0)
(7.26119e-13 5.21531e-13 0)
(7.0385e-13 6.07531e-13 0)
(6.78251e-13 6.89155e-13 0)
(6.49514e-13 7.65715e-13 0)
(6.17852e-13 8.36539e-13 0)
(5.83505e-13 9.00924e-13 0)
(5.46748e-13 9.58152e-13 0)
(5.07881e-13 1.00748e-12 0)
(4.67249e-13 1.04815e-12 0)
(4.25222e-13 1.07935e-12 0)
(3.82215e-13 1.10023e-12 0)
(3.3868e-13 1.10993e-12 0)
(2.95154e-13 1.10743e-12 0)
(2.52148e-13 1.09165e-12 0)
(2.10333e-13 1.06146e-12 0)
(1.7027e-13 1.01558e-12 0)
(1.32768e-13 9.52653e-13 0)
(9.85284e-14 8.70952e-13 0)
(6.80129e-14 7.68715e-13 0)
(4.22895e-14 6.44349e-13 0)
(2.16644e-14 4.95634e-13 0)
(7.7968e-15 3.19916e-13 0)
(6.35962e-17 1.18804e-13 0)
(-2.20387e-17 -1.21957e-13 0)
(5.69309e-15 -3.29216e-13 0)
(1.52508e-14 -5.10253e-13 0)
(2.97987e-14 -6.64227e-13 0)
(4.82827e-14 -7.93139e-13 0)
(7.00655e-14 -8.99043e-13 0)
(9.46302e-14 -9.83856e-13 0)
(1.21598e-13 -1.04934e-12 0)
(1.50335e-13 -1.09711e-12 0)
(1.8029e-13 -1.12858e-12 0)
(2.11198e-13 -1.1451e-12 0)
(2.42349e-13 -1.14783e-12 0)
(2.736e-13 -1.13789e-12 0)
(3.04403e-13 -1.11636e-12 0)
(3.34546e-13 -1.08412e-12 0)
(3.63673e-13 -1.04205e-12 0)
(3.91522e-13 -9.91025e-13 0)
(4.17855e-13 -9.31822e-13 0)
(4.42451e-13 -8.65214e-13 0)
(4.65119e-13 -7.91934e-13 0)
(4.85684e-13 -7.12731e-13 0)
(5.03985e-13 -6.28291e-13 0)
(5.19903e-13 -5.39333e-13 0)
(5.33325e-13 -4.46531e-13 0)
(5.44156e-13 -3.50581e-13 0)
(5.5233e-13 -2.52161e-13 0)
(5.57797e-13 -1.51979e-13 0)
(5.60521e-13 -5.07418e-14 0)
(5.60491e-13 5.08256e-14 0)
(5.57704e-13 1.5202e-13 0)
(5.52174e-13 2.5215e-13 0)
(5.43942e-13 3.50516e-13 0)
(5.33059e-13 4.46428e-13 0)
(5.19583e-13 5.39197e-13 0)
(5.03614e-13 6.28125e-13 0)
(4.85255e-13 7.12524e-13 0)
(4.64642e-13 7.91698e-13 0)
(4.41941e-13 8.64931e-13 0)
(4.17314e-13 9.315e-13 0)
(3.90958e-13 9.90663e-13 0)
(3.631e-13 1.04166e-12 0)
(3.33979e-13 1.08369e-12 0)
(3.03852e-13 1.11591e-12 0)
(2.73056e-13 1.13743e-12 0)
(2.41824e-13 1.14737e-12 0)
(2.10752e-13 1.14466e-12 0)
(1.79908e-13 1.12812e-12 0)
(1.50071e-13 1.09671e-12 0)
(1.21542e-13 1.04902e-12 0)
(9.463e-14 9.83524e-13 0)
(7.02102e-14 8.98768e-13 0)
(4.88454e-14 7.93035e-13 0)
(3.02812e-14 6.64032e-13 0)
(1.52864e-14 5.10032e-13 0)
(5.63661e-15 3.29295e-13 0)
(-6.443e-17 1.21922e-13 0)
(-5.77108e-17 -1.24077e-13 0)
(3.44369e-15 -3.3533e-13 0)
(9.22064e-15 -5.20104e-13 0)
(1.79684e-14 -6.77377e-13 0)
(2.913e-14 -8.09232e-13 0)
(4.22209e-14 -9.17645e-13 0)
(5.69509e-14 -1.00455e-12 0)
(7.31755e-14 -1.07169e-12 0)
(9.04476e-14 -1.12067e-12 0)
(1.08441e-13 -1.15296e-12 0)
(1.27394e-13 -1.16982e-12 0)
(1.45554e-13 -1.17259e-12 0)
(1.64747e-13 -1.16274e-12 0)
(1.83235e-13 -1.14079e-12 0)
(2.01375e-13 -1.10786e-12 0)
(2.18898e-13 -1.06488e-12 0)
(2.35642e-13 -1.01273e-12 0)
(2.51481e-13 -9.52225e-13 0)
(2.66285e-13 -8.84152e-13 0)
(2.79918e-13 -8.09256e-13 0)
(2.92282e-13 -7.28301e-13 0)
(3.03289e-13 -6.41999e-13 0)
(3.12854e-13 -5.5108e-13 0)
(3.20926e-13 -4.56235e-13 0)
(3.27453e-13 -3.58179e-13 0)
(3.32384e-13 -2.57596e-13 0)
(3.35673e-13 -1.5523e-13 0)
(3.37286e-13 -5.17924e-14 0)
(3.3722e-13 5.19782e-14 0)
(3.3551e-13 1.55374e-13 0)
(3.32169e-13 2.57681e-13 0)
(3.27201e-13 3.58205e-13 0)
(3.20632e-13 4.56222e-13 0)
(3.12498e-13 5.51027e-13 0)
(3.02859e-13 6.41919e-13 0)
(2.91794e-13 7.28169e-13 0)
(2.79376e-13 8.0909e-13 0)
(2.65692e-13 8.83931e-13 0)
(2.50855e-13 9.51958e-13 0)
(2.34986e-13 1.01242e-12 0)
(2.1822e-13 1.06453e-12 0)
(2.00697e-13 1.10746e-12 0)
(1.82577e-13 1.14037e-12 0)
(1.64097e-13 1.16229e-12 0)
(1.44916e-13 1.17213e-12 0)
(1.26808e-13 1.16936e-12 0)
(1.07979e-13 1.15251e-12 0)
(9.01204e-14 1.12024e-12 0)
(7.29056e-14 1.07126e-12 0)
(5.69263e-14 1.0042e-12 0)
(4.25809e-14 9.17382e-13 0)
(2.93566e-14 8.08866e-13 0)
(1.81476e-14 6.77166e-13 0)
(9.60284e-15 5.20075e-13 0)
(3.45899e-15 3.35144e-13 0)
(4.134e-17 1.24066e-13 0)
(-4.09466e-17 -1.25144e-13 0)
(1.26406e-15 -3.38424e-13 0)
(3.22786e-15 -5.25042e-13 0)
(6.22954e-15 -6.83989e-13 0)
(1.00799e-14 -8.17318e-13 0)
(1.45152e-14 -9.26984e-13 0)
(1.94307e-14 -1.01491e-12 0)
(2.49163e-14 -1.08285e-12 0)
(3.07191e-14 -1.13245e-12 0)
(3.6605e-14 -1.16519e-12 0)
(4.30205e-14 -1.18243e-12 0)
(4.92682e-14 -1.18556e-12 0)
(5.61937e-14 -1.17528e-12 0)
(6.20717e-14 -1.15299e-12 0)
(6.81262e-14 -1.11969e-12 0)
(7.39996e-14 -1.07629e-12 0)
(7.96064e-14 -1.0236e-12 0)
(8.49127e-14 -9.6244e-13 0)
(8.98709e-14 -8.93619e-13 0)
(9.44358e-14 -8.1792e-13 0)
(9.85675e-14 -7.36075e-13 0)
(1.02238e-13 -6.48843e-13 0)
(1.05438e-13 -5.56923e-13 0)
(1.08151e-13 -4.61046e-13 0)
(1.10356e-13 -3.6192e-13 0)
(1.12014e-13 -2.60276e-13 0)
(1.13094e-13 -1.5683e-13 0)
(1.13596e-13 -5.23188e-14 0)
(1.13526e-13 5.25524e-14 0)
(1.12906e-13 1.57063e-13 0)
(1.11749e-13 2.6048e-13 0)
(1.10053e-13 3.62078e-13 0)
(1.07814e-13 4.6115e-13 0)
(1.05057e-13 5.56974e-13 0)
(1.01789e-13 6.48842e-13 0)
(9.80454e-14 7.36037e-13 0)
(9.38523e-14 8.1782e-13 0)
(8.92295e-14 8.93464e-13 0)
(8.42297e-14 9.62223e-13 0)
(7.8889e-14 1.02332e-12 0)
(7.3254e-14 1.07597e-12 0)
(6.73809e-14 1.11933e-12 0)
(6.13389e-14 1.15257e-12 0)
(5.5461e-14 1.17484e-12 0)
(4.85605e-14 1.1851e-12 0)
(4.23816e-14 1.18194e-12 0)
(3.60395e-14 1.1647e-12 0)
(3.02626e-14 1.13196e-12 0)
(2.47232e-14 1.08238e-12 0)
(1.93727e-14 1.01444e-12 0)
(1.44266e-14 9.26573e-13 0)
(1.04924e-14 8.17036e-13 0)
(6.86132e-15 6.8368e-13 0)
(3.11336e-15 5.24675e-13 0)
(1.05422e-15 3.38338e-13 0)
(-9.93891e-17 1.25074e-13 0)
(-6.96377e-17 -1.25192e-13 0)
(-9.27888e-16 -3.38474e-13 0)
(-2.70696e-15 -5.25129e-13 0)
(-5.4921e-15 -6.84089e-13 0)
(-8.92845e-15 -8.17403e-13 0)
(-1.31309e-14 -9.27067e-13 0)
(-1.80055e-14 -1.01498e-12 0)
(-2.32459e-14 -1.08291e-12 0)
(-2.88459e-14 -1.13251e-12 0)
(-3.46087e-14 -1.16525e-12 0)
(-4.08131e-14 -1.18248e-12 0)
(-4.68748e-14 -1.18561e-12 0)
(-5.36494e-14 -1.17533e-12 0)
(-5.93734e-14 -1.15303e-12 0)
(-6.52817e-14 -1.11973e-12 0)
(-7.10362e-14 -1.07632e-12 0)
(-7.65435e-14 -1.02362e-12 0)
(-8.17634e-14 -9.62453e-13 0)
(-8.66548e-14 -8.93626e-13 0)
(-9.11739e-14 -8.17912e-13 0)
(-9.52858e-14 -7.36057e-13 0)
(-9.89451e-14 -6.48791e-13 0)
(-1.0212e-13 -5.56848e-13 0)
(-1.04791e-13 -4.60958e-13 0)
(-1.06941e-13 -3.61833e-13 0)
(-1.08572e-13 -2.60212e-13 0)
(-1.09694e-13 -1.56794e-13 0)
(-1.103e-13 -5.2292e-14 0)
(-1.10361e-13 5.25755e-14 0)
(-1.09869e-13 1.57084e-13 0)
(-1.08833e-13 2.60512e-13 0)
(-1.07254e-13 3.62125e-13 0)
(-1.05147e-13 4.61208e-13 0)
(-1.02531e-13 5.57046e-13 0)
(-9.94112e-14 6.48914e-13 0)
(-9.58215e-14 7.36111e-13 0)
(-9.17859e-14 8.17892e-13 0)
(-8.73245e-14 8.93539e-13 0)
(-8.2481e-14 9.62293e-13 0)
(-7.7293e-14 1.02338e-12 0)
(-7.18088e-14 1.07603e-12 0)
(-6.60698e-14 1.11938e-12 0)
(-6.0152e-14 1.15262e-12 0)
(-5.44156e-14 1.17488e-12 0)
(-4.76299e-14 1.18513e-12 0)
(-4.15096e-14 1.18196e-12 0)
(-3.51958e-14 1.16472e-12 0)
(-2.93043e-14 1.13195e-12 0)
(-2.3661e-14 1.08235e-12 0)
(-1.81415e-14 1.01447e-12 0)
(-1.2761e-14 9.26574e-13 0)
(-8.78505e-15 8.1685e-13 0)
(-5.59142e-15 6.83675e-13 0)
(-2.30485e-15 5.24841e-13 0)
(-8.41303e-16 3.38153e-13 0)
(-1.00214e-17 1.25093e-13 0)
(-1.38814e-16 -1.24158e-13 0)
(-3.0455e-15 -3.35534e-13 0)
(-8.71777e-15 -5.20328e-13 0)
(-1.72268e-14 -6.7761e-13 0)
(-2.79813e-14 -8.09477e-13 0)
(-4.08615e-14 -9.17879e-13 0)
(-5.55624e-14 -1.00475e-12 0)
(-7.15671e-14 -1.07188e-12 0)
(-8.86594e-14 -1.12084e-12 0)
(-1.06531e-13 -1.15312e-12 0)
(-1.25273e-13 -1.16997e-12 0)
(-1.43249e-13 -1.17273e-12 0)
(-1.62311e-13 -1.16286e-12 0)
(-1.80651e-13 -1.14089e-12 0)
(-1.98646e-13 -1.10795e-12 0)
(-2.16053e-13 -1.06495e-12 0)
(-2.32697e-13 -1.01278e-12 0)
(-2.48452e-13 -9.52257e-13 0)
(-2.63185e-13 -8.84158e-13 0)
(-2.76769e-13 -8.09237e-13 0)
(-2.89094e-13 -7.28247e-13 0)
(-3.00077e-13 -6.419e-13 0)
(-3.09637e-13 -5.50932e-13 0)
(-3.17689e-13 -4.56044e-13 0)
(-3.24195e-13 -3.57976e-13 0)
(-3.29123e-13 -2.57421e-13 0)
(-3.32437e-13 -1.55105e-13 0)
(-3.34127e-13 -5.17015e-14 0)
(-3.3418e-13 5.20676e-14 0)
(-3.32579e-13 1.55493e-13 0)
(-3.29337e-13 2.57832e-13 0)
(-3.24481e-13 3.58384e-13 0)
(-3.18037e-13 4.56409e-13 0)
(-3.1005e-13 5.51235e-13 0)
(-3.00565e-13 6.4213e-13 0)
(-2.89648e-13 7.28395e-13 0)
(-2.77381e-13 8.09306e-13 0)
(-2.63855e-13 8.84146e-13 0)
(-2.49176e-13 9.52157e-13 0)
(-2.33453e-13 1.01261e-12 0)
(-2.16827e-13 1.0647e-12 0)
(-1.9944e-13 1.10763e-12 0)
(-1.81443e-13 1.14051e-12 0)
(-1.63094e-13 1.1624e-12 0)
(-1.44021e-13 1.17222e-12 0)
(-1.25972e-13 1.16943e-12 0)
(-1.07186e-13 1.15252e-12 0)
(-8.92192e-14 1.12024e-12 0)
(-7.18075e-14 1.07126e-12 0)
(-5.56755e-14 1.00411e-12 0)
(-4.1146e-14 9.17272e-13 0)
(-2.7667e-14 8.08961e-13 0)
(-1.65351e-14 6.77007e-13 0)
(-8.97982e-15 5.19795e-13 0)
(-3.46676e-15 3.35187e-13 0)
(-1.11483e-16 1.24044e-13 0)
(-9.47233e-17 -1.22077e-13 0)
(-5.28898e-15 -3.29483e-13 0)
(-1.46794e-14 -5.10606e-13 0)
(-2.90815e-14 -6.64556e-13 0)
(-4.72013e-14 -7.93494e-13 0)
(-6.87675e-14 -8.99392e-13 0)
(-9.33364e-14 -9.84196e-13 0)
(-1.20116e-13 -1.04967e-12 0)
(-1.48689e-13 -1.09739e-12 0)
(-1.78556e-13 -1.12884e-12 0)
(-2.0928e-13 -1.14536e-12 0)
(-2.40251e-13 -1.14806e-12 0)
(-2.71371e-13 -1.13808e-12 0)
(-3.0204e-13 -1.11653e-12 0)
(-3.32056e-13 -1.08426e-12 0)
(-3.61068e-13 -1.04218e-12 0)
(-3.88815e-13 -9.91106e-13 0)
(-4.15066e-13 -9.3188e-13 0)
(-4.39593e-13 -8.65224e-13 0)
(-4.62209e-13 -7.91921e-13 0)
(-4.82735e-13 -7.12651e-13 0)
(-5.01011e-13 -6.28179e-13 0)
(-5.16902e-13 -5.39145e-13 0)
(-5.30315e-13 -4.46312e-13 0)
(-5.41156e-13 -3.50328e-13 0)
(-5.49357e-13 -2.5193e-13 0)
(-5.54863e-13 -1.5175e-13 0)
(-5.57631e-13 -5.05494e-14 0)
(-5.57656e-13 5.1044e-14 0)
(-5.5495e-13 1.52252e-13 0)
(-5.49528e-13 2.52436e-13 0)
(-5.4142e-13 3.50818e-13 0)
(-5.30657e-13 4.46777e-13 0)
(-5.17307e-13 5.39544e-13 0)
(-5.01474e-13 6.28511e-13 0)
(-4.83262e-13 7.12897e-13 0)
(-4.62803e-13 7.92085e-13 0)
(-4.40249e-13 8.65286e-13 0)
(-4.15761e-13 9.31856e-13 0)
(-3.89544e-13 9.90985e-13 0)
(-3.61822e-13 1.04197e-12 0)
(-3.32823e-13 1.08396e-12 0)
(-3.02815e-13 1.11616e-12 0)
(-2.72143e-13 1.13762e-12 0)
(-2.41014e-13 1.14753e-12 0)
(-2.10015e-13 1.14477e-12 0)
(-1.79172e-13 1.12821e-12 0)
(-1.49169e-13 1.09671e-12 0)
(-1.20613e-13 1.04897e-12 0)
(-9.35447e-14 9.83535e-13 0)
(-6.83935e-14 8.98682e-13 0)
(-4.72217e-14 7.92709e-13 0)
(-2.94159e-14 6.63922e-13 0)
(-1.42913e-14 5.1008e-13 0)
(-5.24674e-15 3.28938e-13 0)
(-1.52151e-17 1.21968e-13 0)
(-1.90992e-16 -1.18911e-13 0)
(-7.47675e-15 -3.20324e-13 0)
(-2.08567e-14 -4.9589e-13 0)
(-4.10801e-14 -6.44831e-13 0)
(-6.66369e-14 -7.69367e-13 0)
(-9.69851e-14 -8.71536e-13 0)
(-1.31454e-13 -9.53264e-13 0)
(-1.69019e-13 -1.01629e-12 0)
(-2.09062e-13 -1.06219e-12 0)
(-2.50901e-13 -1.09237e-12 0)
(-2.93829e-13 -1.10818e-12 0)
(-3.37261e-13 -1.11066e-12 0)
(-3.80701e-13 -1.10093e-12 0)
(-4.23599e-13 -1.08001e-12 0)
(-4.65533e-13 -1.04877e-12 0)
(-5.06067e-13 -1.00803e-12 0)
(-5.44838e-13 -9.58643e-13 0)
(-5.81502e-13 -9.01332e-13 0)
(-6.15766e-13 -8.36887e-13 0)
(-6.47344e-13 -7.65971e-13 0)
(-6.76003e-13 -6.89333e-13 0)
(-7.01523e-13 -6.07603e-13 0)
(-7.23731e-13 -5.21522e-13 0)
(-7.42467e-13 -4.31714e-13 0)
(-7.57603e-13 -3.38892e-13 0)
(-7.69031e-13 -2.43676e-13 0)
(-7.76691e-13 -1.46783e-13 0)
(-7.80541e-13 -4.88303e-14 0)
(-7.80568e-13 4.94368e-14 0)
(-7.76767e-13 1.47388e-13 0)
(-7.69166e-13 2.44281e-13 0)
(-7.57806e-13 3.39485e-13 0)
(-7.4275e-13 4.32283e-13 0)
(-7.24092e-13 5.22039e-13 0)
(-7.01956e-13 6.08047e-13 0)
(-6.76497e-13 6.89684e-13 0)
(-6.47896e-13 7.66228e-13 0)
(-6.1637e-13 8.37038e-13 0)
(-5.82151e-13 9.0138e-13 0)
(-5.45517e-13 9.58573e-13 0)
(-5.06773e-13 1.00786e-12 0)
(-4.66254e-13 1.04848e-12 0)
(-4.24322e-13 1.07962e-12 0)
(-3.8144e-13 1.10045e-12 0)
(-3.37999e-13 1.11009e-12 0)
(-2.94498e-13 1.10754e-12 0)
(-2.51544e-13 1.09167e-12 0)
(-2.09636e-13 1.06145e-12 0)
(-1.69224e-13 1.01556e-12 0)
(-1.31611e-13 9.52435e-13 0)
(-9.74878e-14 8.70741e-13 0)
(-6.64048e-14 7.68659e-13 0)
(-4.03573e-14 6.43982e-13 0)
(-2.13224e-14 4.95044e-13 0)
(-8.0088e-15 3.19807e-13 0)
(-2.18303e-16 1.18755e-13 0)
(-1.36978e-16 -1.14633e-13 0)
(-9.81315e-15 -3.08018e-13 0)
(-2.70491e-14 -4.76095e-13 0)
(-5.33265e-14 -6.18355e-13 0)
(-8.64341e-14 -7.37071e-13 0)
(-1.25634e-13 -8.3428e-13 0)
(-1.70056e-13 -9.11929e-13 0)
(-2.18437e-13 -9.71758e-13 0)
(-2.69933e-13 -1.01527e-12 0)
(-3.23699e-13 -1.04383e-12 0)
(-3.78816e-13 -1.05869e-12 0)
(-4.34573e-13 -1.06091e-12 0)
(-4.90284e-13 -1.05153e-12 0)