/*--------------------------------*- C++ -*----------------------------------*\
| =========                 |                                                 |
| \\      /  F ield         | OpenFOAM: The Open Source CFD Toolbox           |
|  \\    /   O peration     | Version:  5.0                                   |
|   \\  /    A nd           | Web:      www.OpenFOAM.org                      |
|    \\/     M anipulation  |                                                 |
\*---------------------------------------------------------------------------*/
FoamFile
{
    version     2.0;
    format      ascii;
    class       volVectorField;
    location    "3.4";
    object      U;
}
// * * * * * * * * * * * * * * * * * * * * * * * * * * * * * * * * * * * * * //

dimensions      [0 1 -1 0 0 0 0];

internalField   nonuniform List<vector> 
50
(
(0.986277 0.00422366 6.14974e-23)
(0.985385 -7.5821e-06 -4.39737e-23)
(0.984007 1.70485e-06 -4.61724e-23)
(0.985873 5.91962e-05 -4.61324e-23)
(0.981194 -0.00205176 3.29814e-23)
(0.985368 0.00241455 9.08011e-23)
(0.939611 0.000871295 1.29205e-23)
(0.937442 0.000170073 -4.53926e-23)
(0.936087 0.000102593 5.2082e-24)
(0.93283 -0.00212484 8.52114e-24)
(0.786148 0.00347634 -8.9557e-37)
(0.789623 -3.97433e-05 4.68481e-23)
(0.787758 3.18986e-05 5.38072e-26)
(0.789576 0.000249004 -3.73621e-23)
(0.786648 -0.00135349 -4.09478e-23)
(0.789872 0.00554135 -3.46582e-23)
(0.796566 0.00403345 -5.94647e-23)
(0.797959 0.000736758 6.57434e-23)
(0.798567 0.000340171 6.53984e-24)
(0.795583 -0.000823522 -1.4858e-22)
(0.589211 -8.74197e-05 -2.58733e-23)
(0.592921 0.000195235 -2.93685e-26)
(0.5913 3.30802e-05 2.75385e-23)
(0.592747 3.51326e-05 -5.57493e-23)
(0.591119 0.000274306 -5.46205e-23)
(0.593506 0.00254878 4.81441e-23)
(0.610722 0.00306308 4.06497e-23)
(0.613773 0.00047814 3.03822e-23)
(0.614966 2.75539e-05 -1.23601e-24)
(0.613649 -0.000456741 -5.72655e-23)
(0.39513 -0.00265942 -1.44185e-22)
(0.395006 0.000313423 3.1351e-23)
(0.394706 2.28888e-05 -4.12014e-23)
(0.39527 -9.55434e-05 -1.58898e-23)
(0.395296 0.00143894 -5.21572e-23)
(0.396744 -0.000590884 1.2299e-22)
(0.405155 0.00113931 1.1836e-23)
(0.407871 0.000148288 -2.58038e-24)
(0.407954 -0.000237199 -2.14725e-23)
(0.410056 0.00278345 -1.85502e-22)
(0.200824 -0.0113056 3.64524e-23)
(0.197127 4.40567e-05 1.57045e-23)
(0.19813 1.62434e-05 -4.94729e-23)
(0.197813 -2.83454e-06 -1.5066e-23)
(0.199138 0.00565553 3.40531e-23)
(0.199603 -0.0051668 7.9564e-25)
(0.200866 0.000632839 1.65038e-23)
(0.202405 0.000111793 1.10187e-24)
(0.20125 -1.56418e-05 0)
(0.205537 0.0115103 0)
)
;

boundaryField
{
    top
    {
        type            fixedValue;
        value           uniform (0 0 0);
    }
    bottom
    {
        type            symmetryPlane;
    }
    inlet
    {
        type            pressureInletVelocity;
        value           nonuniform List<vector> 5((0.987142 0 0) (0.785401 0 0) (0.587912 0 0) (0.394959 0 0) (0.202756 0 0));
    }
    outlet
    {
        type            inletOutlet;
        inletValue      uniform (1 0 0);
        value           nonuniform List<vector> 5((0.93283 -0.00212484 8.52114e-24) (0.795583 -0.000823522 -1.4858e-22) (0.613649 -0.000456741 -5.72655e-23) (0.410056 0.00278345 -1.85502e-22) (0.205537 0.0115103 0));
    }
    frontAndBack
    {
        type            empty;
    }
}


// ************************************************************************* //
