/*--------------------------------*- C++ -*----------------------------------*\
| =========                 |                                                 |
| \\      /  F ield         | OpenFOAM: The Open Source CFD Toolbox           |
|  \\    /   O peration     | Version:  5.0                                   |
|   \\  /    A nd           | Web:      www.OpenFOAM.org                      |
|    \\/     M anipulation  |                                                 |
\*---------------------------------------------------------------------------*/
FoamFile
{
    version     2.0;
    format      ascii;
    class       volVectorField;
    location    "278";
    object      U;
}
// * * * * * * * * * * * * * * * * * * * * * * * * * * * * * * * * * * * * * //

dimensions      [0 1 -1 0 0 0 0];

internalField   nonuniform List<vector> 
1568
(
(3.23271e-15 -3.45165e-14 0)
(8.64942e-14 -6.79476e-14 0)
(2.7361e-13 -1.32784e-13 0)
(5.46065e-13 -1.50421e-13 0)
(8.39409e-13 -1.60303e-13 0)
(1.18274e-12 -1.92698e-13 0)
(1.57052e-12 -2.05674e-13 0)
(1.97706e-12 -2.15246e-13 0)
(2.40451e-12 -2.26015e-13 0)
(2.84856e-12 -2.31871e-13 0)
(3.3001e-12 -2.34458e-13 0)
(3.75425e-12 -2.34845e-13 0)
(4.20702e-12 -2.32655e-13 0)
(4.65344e-12 -2.28093e-13 0)
(5.08899e-12 -2.21687e-13 0)
(5.50995e-12 -2.13162e-13 0)
(5.91254e-12 -2.02793e-13 0)
(6.29338e-12 -1.90868e-13 0)
(6.64943e-12 -1.77399e-13 0)
(6.97791e-12 -1.62508e-13 0)
(7.27627e-12 -1.46318e-13 0)
(7.5425e-12 -1.29196e-13 0)
(7.77484e-12 -1.10583e-13 0)
(7.9698e-12 -8.76863e-14 0)
(8.12754e-12 -6.32476e-14 0)
(8.24863e-12 -4.16545e-14 0)
(8.33193e-12 -2.07598e-14 0)
(8.37308e-12 -5.46355e-15 0)
(8.37269e-12 5.85289e-15 0)
(8.33106e-12 2.0791e-14 0)
(8.24746e-12 4.15717e-14 0)
(8.12608e-12 6.30933e-14 0)
(7.96791e-12 8.77424e-14 0)
(7.77274e-12 1.10405e-13 0)
(7.54046e-12 1.29165e-13 0)
(7.27451e-12 1.46033e-13 0)
(6.97641e-12 1.62391e-13 0)
(6.64826e-12 1.77e-13 0)
(6.29285e-12 1.90704e-13 0)
(5.9125e-12 2.02604e-13 0)
(5.51042e-12 2.12978e-13 0)
(5.09028e-12 2.21192e-13 0)
(4.65565e-12 2.2776e-13 0)
(4.21026e-12 2.32108e-13 0)
(3.75859e-12 2.3426e-13 0)
(3.30535e-12 2.33694e-13 0)
(2.85548e-12 2.30704e-13 0)
(2.41425e-12 2.24741e-13 0)
(1.98734e-12 2.15931e-13 0)
(1.58073e-12 2.03348e-13 0)
(1.20142e-12 1.87351e-13 0)
(8.56568e-13 1.68334e-13 0)
(5.55591e-13 1.42695e-13 0)
(3.01737e-13 1.17062e-13 0)
(1.18146e-13 7.66081e-14 0)
(1.58118e-14 3.18095e-14 0)
(9.52604e-15 -9.7214e-14 0)
(1.13436e-13 -2.05917e-13 0)
(2.76728e-13 -3.24719e-13 0)
(4.831e-13 -4.04524e-13 0)
(7.76173e-13 -4.84624e-13 0)
(1.09644e-12 -5.39051e-13 0)
(1.44504e-12 -5.83882e-13 0)
(1.82619e-12 -6.1941e-13 0)
(2.22505e-12 -6.4483e-13 0)
(2.6363e-12 -6.61606e-13 0)
(3.05577e-12 -6.69901e-13 0)
(3.47939e-12 -6.71086e-13 0)
(3.90083e-12 -6.65292e-13 0)
(4.3159e-12 -6.52604e-13 0)
(4.72148e-12 -6.33538e-13 0)
(5.11322e-12 -6.09169e-13 0)
(5.48781e-12 -5.79392e-13 0)
(5.84224e-12 -5.44917e-13 0)
(6.17359e-12 -5.05948e-13 0)
(6.47918e-12 -4.63351e-13 0)
(6.75669e-12 -4.17095e-13 0)
(7.00391e-12 -3.67974e-13 0)
(7.21928e-12 -3.16187e-13 0)
(7.4012e-12 -2.62873e-13 0)
(7.54941e-12 -2.099e-13 0)
(7.66241e-12 -1.55431e-13 0)
(7.73916e-12 -9.58919e-14 0)
(7.77726e-12 -3.21585e-14 0)
(7.77723e-12 3.29723e-14 0)
(7.73871e-12 9.69845e-14 0)
(7.66144e-12 1.56535e-13 0)
(7.54793e-12 2.10737e-13 0)
(7.39973e-12 2.633e-13 0)
(7.21794e-12 3.16278e-13 0)
(7.00258e-12 3.67852e-13 0)
(6.75515e-12 4.16825e-13 0)
(6.47782e-12 4.63073e-13 0)
(6.17264e-12 5.05386e-13 0)
(5.84141e-12 5.4412e-13 0)
(5.48761e-12 5.78417e-13 0)
(5.11374e-12 6.0816e-13 0)
(4.72241e-12 6.32408e-13 0)
(4.31752e-12 6.51322e-13 0)
(3.90306e-12 6.63618e-13 0)
(3.48256e-12 6.69534e-13 0)
(3.06054e-12 6.68256e-13 0)
(2.64145e-12 6.59535e-13 0)
(2.23038e-12 6.42471e-13 0)
(1.83263e-12 6.1668e-13 0)
(1.45456e-12 5.81913e-13 0)
(1.10186e-12 5.36801e-13 0)
(7.80711e-13 4.7772e-13 0)
(4.99539e-13 4.09259e-13 0)
(2.71233e-13 3.23384e-13 0)
(1.08168e-13 2.16755e-13 0)
(5.05525e-15 9.15761e-14 0)
(-3.42403e-15 -1.49876e-13 0)
(8.2071e-14 -3.30801e-13 0)
(2.27993e-13 -5.2394e-13 0)
(4.49247e-13 -6.61117e-13 0)
(6.91369e-13 -7.74339e-13 0)
(9.88415e-13 -8.71883e-13 0)
(1.31792e-12 -9.42847e-13 0)
(1.66679e-12 -9.99796e-13 0)
(2.03455e-12 -1.0417e-12 0)
(2.41757e-12 -1.06856e-12 0)
(2.80683e-12 -1.08212e-12 0)
(3.19786e-12 -1.08366e-12 0)
(3.5884e-12 -1.07384e-12 0)
(3.97363e-12 -1.05316e-12 0)
(4.34899e-12 -1.02293e-12 0)
(4.71179e-12 -9.83394e-13 0)
(5.05888e-12 -9.35483e-13 0)
(5.38708e-12 -8.79869e-13 0)
(5.69373e-12 -8.17264e-13 0)
(5.97662e-12 -7.48238e-13 0)
(6.23357e-12 -6.73599e-13 0)
(6.46264e-12 -5.93946e-13 0)
(6.66208e-12 -5.09996e-13 0)
(6.83097e-12 -4.22775e-13 0)
(6.96768e-12 -3.33358e-13 0)
(7.07059e-12 -2.41541e-13 0)
(7.13935e-12 -1.46199e-13 0)
(7.17389e-12 -4.85886e-14 0)
(7.17359e-12 4.99637e-14 0)
(7.13871e-12 1.47548e-13 0)
(7.06982e-12 2.43156e-13 0)
(6.96682e-12 3.34932e-13 0)
(6.82986e-12 4.24538e-13 0)
(6.66079e-12 5.1138e-13 0)
(6.46129e-12 5.9524e-13 0)
(6.23247e-12 6.74268e-13 0)
(5.97562e-12 7.48801e-13 0)
(5.69286e-12 8.17155e-13 0)
(5.38666e-12 8.79417e-13 0)
(5.05873e-12 9.34486e-13 0)
(4.71201e-12 9.81978e-13 0)
(4.34989e-12 1.02093e-12 0)
(3.97502e-12 1.05104e-12 0)
(3.59066e-12 1.07117e-12 0)
(3.20102e-12 1.08088e-12 0)
(2.80986e-12 1.07908e-12 0)
(2.42148e-12 1.06502e-12 0)
(2.04056e-12 1.03773e-12 0)
(1.67253e-12 9.96493e-13 0)
(1.3224e-12 9.38863e-13 0)
(9.94888e-13 8.64883e-13 0)
(7.01484e-13 7.73268e-13 0)
(4.46345e-13 6.57176e-13 0)
(2.32487e-13 5.17409e-13 0)
(8.86699e-14 3.45782e-13 0)
(1.40664e-15 1.4074e-13 0)
(-5.77304e-15 -1.77672e-13 0)
(8.32411e-14 -4.60227e-13 0)
(2.0454e-13 -6.81896e-13 0)
(3.87732e-13 -8.86485e-13 0)
(6.23132e-13 -1.0421e-12 0)
(8.91688e-13 -1.16686e-12 0)
(1.18997e-12 -1.26788e-12 0)
(1.50988e-12 -1.34658e-12 0)
(1.84911e-12 -1.40226e-12 0)
(2.19994e-12 -1.43838e-12 0)
(2.55707e-12 -1.45772e-12 0)
(2.9179e-12 -1.45971e-12 0)
(3.27733e-12 -1.44607e-12 0)
(3.631e-12 -1.41852e-12 0)
(3.97653e-12 -1.37761e-12 0)
(4.31048e-12 -1.32418e-12 0)
(4.62954e-12 -1.25971e-12 0)
(4.93138e-12 -1.18469e-12 0)
(5.21362e-12 -1.10036e-12 0)
(5.47384e-12 -1.00738e-12 0)
(5.7101e-12 -9.06939e-13 0)
(5.92071e-12 -7.99692e-13 0)
(6.10423e-12 -6.86915e-13 0)
(6.25926e-12 -5.69202e-13 0)
(6.38443e-12 -4.48223e-13 0)
(6.4784e-12 -3.23412e-13 0)
(6.54077e-12 -1.95356e-13 0)
(6.57185e-12 -6.46187e-14 0)
(6.57181e-12 6.65088e-14 0)
(6.54065e-12 1.97347e-13 0)
(6.47793e-12 3.2539e-13 0)
(6.3836e-12 4.50185e-13 0)
(6.25833e-12 5.70964e-13 0)
(6.10327e-12 6.88476e-13 0)
(5.91958e-12 8.00856e-13 0)
(5.70878e-12 9.07795e-13 0)
(5.47264e-12 1.00754e-12 0)
(5.21255e-12 1.10023e-12 0)
(4.93048e-12 1.18396e-12 0)
(4.62902e-12 1.25842e-12 0)
(4.31041e-12 1.32242e-12 0)
(3.97691e-12 1.37543e-12 0)
(3.6318e-12 1.41578e-12 0)
(3.27843e-12 1.44335e-12 0)
(2.9199e-12 1.45631e-12 0)
(2.55993e-12 1.45402e-12 0)
(2.20268e-12 1.4351e-12 0)
(1.85286e-12 1.39819e-12 0)
(1.51394e-12 1.34156e-12 0)
(1.19293e-12 1.26447e-12 0)
(8.96837e-13 1.16359e-12 0)
(6.25451e-13 1.03642e-12 0)
(3.90816e-13 8.79918e-13 0)
(2.07157e-13 6.90007e-13 0)
(7.7372e-14 4.54602e-13 0)
(1.78933e-15 1.80622e-13 0)
(5.73315e-15 -2.14103e-13 0)
(6.28997e-14 -5.4468e-13 0)
(1.80672e-13 -8.43668e-13 0)
(3.4694e-13 -1.07903e-12 0)
(5.54598e-13 -1.27711e-12 0)
(7.96571e-13 -1.43586e-12 0)
(1.06595e-12 -1.5629e-12 0)
(1.35629e-12 -1.66004e-12 0)
(1.6647e-12 -1.72997e-12 0)
(1.98407e-12 -1.77609e-12 0)
(2.30953e-12 -1.79958e-12 0)
(2.63799e-12 -1.80225e-12 0)
(2.96524e-12 -1.786e-12 0)
(3.28804e-12 -1.75185e-12 0)
(3.60316e-12 -1.70091e-12 0)
(3.90742e-12 -1.63515e-12 0)
(4.19844e-12 -1.55517e-12 0)
(4.4737e-12 -1.46248e-12 0)
(4.73081e-12 -1.35805e-12 0)
(4.96796e-12 -1.2434e-12 0)
(5.18333e-12 -1.11922e-12 0)
(5.37526e-12 -9.86994e-13 0)
(5.54235e-12 -8.47589e-13 0)
(5.68334e-12 -7.02498e-13 0)
(5.79706e-12 -5.52285e-13 0)
(5.88255e-12 -3.98098e-13 0)
(5.9394e-12 -2.39974e-13 0)
(5.96777e-12 -7.94598e-14 0)
(5.96762e-12 8.20421e-14 0)
(5.93898e-12 2.4238e-13 0)
(5.88203e-12 4.00199e-13 0)
(5.79641e-12 5.54202e-13 0)
(5.68239e-12 7.04047e-13 0)
(5.54112e-12 8.48779e-13 0)
(5.37391e-12 9.8763e-13 0)
(5.18193e-12 1.11949e-12 0)
(4.96662e-12 1.24324e-12 0)
(4.72963e-12 1.35739e-12 0)
(4.47258e-12 1.46133e-12 0)
(4.19752e-12 1.55357e-12 0)
(3.90678e-12 1.63304e-12 0)
(3.60284e-12 1.69837e-12 0)
(3.28835e-12 1.74891e-12 0)
(2.96596e-12 1.78274e-12 0)
(2.63894e-12 1.79892e-12 0)
(2.31108e-12 1.79589e-12 0)
(1.98561e-12 1.77223e-12 0)
(1.66654e-12 1.72615e-12 0)
(1.35975e-12 1.65611e-12 0)
(1.06869e-12 1.55928e-12 0)
(7.96588e-13 1.43272e-12 0)
(5.55961e-13 1.27461e-12 0)
(3.50822e-13 1.07967e-12 0)
(1.77509e-13 8.40081e-13 0)
(6.47648e-14 5.5123e-13 0)
(4.5941e-16 2.14657e-13 0)
(-6.6387e-16 -2.46082e-13 0)
(5.70355e-14 -6.30887e-13 0)
(1.56734e-13 -9.74308e-13 0)
(3.05723e-13 -1.2573e-12 0)
(4.89117e-13 -1.49074e-12 0)
(7.05128e-13 -1.67944e-12 0)
(9.45459e-13 -1.83058e-12 0)
(1.20615e-12 -1.94567e-12 0)
(1.48295e-12 -2.02863e-12 0)
(1.76956e-12 -2.0836e-12 0)
(2.06238e-12 -2.11187e-12 0)
(2.3583e-12 -2.11543e-12 0)
(2.65334e-12 -2.09624e-12 0)
(2.94426e-12 -2.05603e-12 0)
(3.22817e-12 -1.99659e-12 0)
(3.50251e-12 -1.91918e-12 0)
(3.76488e-12 -1.82527e-12 0)
(4.01295e-12 -1.71645e-12 0)
(4.24471e-12 -1.594e-12 0)
(4.45841e-12 -1.45915e-12 0)
(4.65245e-12 -1.31342e-12 0)
(4.82527e-12 -1.15808e-12 0)
(4.97565e-12 -9.94428e-13 0)
(5.10257e-12 -8.23711e-13 0)
(5.20488e-12 -6.47149e-13 0)
(5.28184e-12 -4.65745e-13 0)
(5.33322e-12 -2.80549e-13 0)
(5.35882e-12 -9.287e-14 0)
(5.35865e-12 9.55703e-14 0)
(5.33278e-12 2.83258e-13 0)
(5.28117e-12 4.68353e-13 0)
(5.20392e-12 6.49449e-13 0)
(5.10143e-12 8.25644e-13 0)
(4.97438e-12 9.95999e-13 0)
(4.82384e-12 1.15926e-12 0)
(4.65094e-12 1.31412e-12 0)
(4.45684e-12 1.45934e-12 0)
(4.24311e-12 1.59352e-12 0)
(4.01143e-12 1.71536e-12 0)
(3.76353e-12 1.82363e-12 0)
(3.50142e-12 1.91693e-12 0)
(3.22736e-12 1.99388e-12 0)
(2.94366e-12 2.05293e-12 0)
(2.65302e-12 2.09261e-12 0)
(2.35849e-12 2.11148e-12 0)
(2.06294e-12 2.10779e-12 0)
(1.77e-12 2.07954e-12 0)
(1.48402e-12 2.02488e-12 0)
(1.20733e-12 1.94151e-12 0)
(9.45615e-13 1.82636e-12 0)
(7.072e-13 1.6769e-12 0)
(4.90211e-13 1.48881e-12 0)
(3.01827e-13 1.2563e-12 0)
(1.58637e-13 9.75078e-13 0)
(5.95046e-14 6.36717e-13 0)
(9.03177e-16 2.44177e-13 0)
(-1.023e-15 -2.69044e-13 0)
(5.10262e-14 -7.07933e-13 0)
(1.36837e-13 -1.09057e-12 0)
(2.65945e-13 -1.41297e-12 0)
(4.27185e-13 -1.67846e-12 0)
(6.15861e-13 -1.89486e-12 0)
(8.27566e-13 -2.06727e-12 0)
(1.05859e-12 -2.19906e-12 0)
(1.30313e-12 -2.29486e-12 0)
(1.55667e-12 -2.35814e-12 0)
(1.81657e-12 -2.39049e-12 0)
(2.07928e-12 -2.39474e-12 0)
(2.34115e-12 -2.37331e-12 0)
(2.59943e-12 -2.32805e-12 0)
(2.85173e-12 -2.26072e-12 0)
(3.09558e-12 -2.17304e-12 0)
(3.32866e-12 -2.0668e-12 0)
(3.54904e-12 -1.94353e-12 0)
(3.75502e-12 -1.80482e-12 0)
(3.94492e-12 -1.65213e-12 0)
(4.11721e-12 -1.48707e-12 0)
(4.27071e-12 -1.31107e-12 0)
(4.40428e-12 -1.12557e-12 0)
(4.51686e-12 -9.32021e-13 0)
(4.60764e-12 -7.31912e-13 0)
(4.67601e-12 -5.26371e-13 0)
(4.72162e-12 -3.16855e-13 0)
(4.74438e-12 -1.04869e-13 0)
(4.7443e-12 1.07953e-13 0)
(4.72131e-12 3.19856e-13 0)
(4.67541e-12 5.29204e-13 0)
(4.60677e-12 7.34505e-13 0)
(4.51573e-12 9.34313e-13 0)
(4.40291e-12 1.12738e-12 0)
(4.26914e-12 1.31239e-12 0)
(4.11547e-12 1.4878e-12 0)
(3.94301e-12 1.65225e-12 0)
(3.75307e-12 1.80435e-12 0)
(3.54712e-12 1.9425e-12 0)
(3.32678e-12 2.0652e-12 0)
(3.09383e-12 2.1709e-12 0)
(2.85024e-12 2.25803e-12 0)
(2.59821e-12 2.32491e-12 0)
(2.34007e-12 2.36992e-12 0)
(2.07846e-12 2.39109e-12 0)
(1.81632e-12 2.38651e-12 0)
(1.55645e-12 2.35409e-12 0)
(1.30238e-12 2.2913e-12 0)
(1.05867e-12 2.19545e-12 0)
(8.28576e-13 2.0641e-12 0)
(6.14385e-13 1.89258e-12 0)
(4.2579e-13 1.67668e-12 0)
(2.67665e-13 1.41318e-12 0)
(1.34797e-13 1.09332e-12 0)
(4.78057e-14 7.0922e-13 0)
(9.04243e-16 2.70398e-13 0)
(1.01252e-15 -2.90735e-13 0)
(4.32837e-14 -7.70691e-13 0)
(1.17157e-13 -1.19201e-12 0)
(2.27332e-13 -1.54707e-12 0)
(3.66154e-13 -1.84169e-12 0)
(5.29483e-13 -2.08204e-12 0)
(7.13025e-13 -2.27315e-12 0)
(9.13003e-13 -2.42033e-12 0)
(1.12492e-12 -2.52775e-12 0)
(1.34556e-12 -2.59811e-12 0)
(1.57204e-12 -2.63449e-12 0)
(1.8007e-12 -2.63985e-12 0)
(2.02878e-12 -2.61656e-12 0)
(2.25403e-12 -2.56678e-12 0)
(2.47406e-12 -2.49254e-12 0)
(2.68665e-12 -2.39591e-12 0)
(2.88993e-12 -2.27873e-12 0)
(3.0822e-12 -2.14271e-12 0)
(3.26183e-12 -1.98963e-12 0)
(3.4274e-12 -1.82127e-12 0)
(3.57767e-12 -1.63918e-12 0)
(3.71151e-12 -1.44499e-12 0)
(3.82792e-12 -1.24042e-12 0)
(3.926e-12 -1.02698e-12 0)
(4.00513e-12 -8.06185e-13 0)
(4.06477e-12 -5.79598e-13 0)
(4.10459e-12 -3.48759e-13 0)
(4.12446e-12 -1.15302e-13 0)
(4.12429e-12 1.18975e-13 0)
(4.10413e-12 3.52248e-13 0)
(4.06407e-12 5.82817e-13 0)
(4.00413e-12 8.09025e-13 0)
(3.9247e-12 1.02937e-12 0)
(3.82637e-12 1.2423e-12 0)
(3.70974e-12 1.44631e-12 0)
(3.57571e-12 1.63988e-12 0)
(3.42534e-12 1.82136e-12 0)
(3.25972e-12 1.98916e-12 0)
(3.08004e-12 2.14161e-12 0)
(2.88781e-12 2.27704e-12 0)
(2.68458e-12 2.39371e-12 0)
(2.4721e-12 2.48986e-12 0)
(2.2523e-12 2.56364e-12 0)
(2.02719e-12 2.61308e-12 0)
(1.79918e-12 2.63615e-12 0)
(1.57074e-12 2.63065e-12 0)
(1.34457e-12 2.59413e-12 0)
(1.12421e-12 2.52402e-12 0)
(9.11998e-13 2.41736e-12 0)
(7.11612e-13 2.27033e-12 0)
(5.29753e-13 2.07955e-12 0)
(3.66307e-13 1.84105e-12 0)
(2.24403e-13 1.54716e-12 0)
(1.1662e-13 1.1932e-12 0)
(4.37386e-14 7.73636e-13 0)
(2.6841e-16 2.92231e-13 0)
(1.69632e-16 -3.10502e-13 0)
(3.63311e-14 -8.25068e-13 0)
(9.78758e-14 -1.2791e-12 0)
(1.90389e-13 -1.66237e-12 0)
(3.07587e-13 -1.98125e-12 0)
(4.45456e-13 -2.24216e-12 0)
(6.00298e-13 -2.45066e-12 0)
(7.69199e-13 -2.61154e-12 0)
(9.48958e-13 -2.72864e-12 0)
(1.13625e-12 -2.80536e-12 0)
(1.32837e-12 -2.84552e-12 0)
(1.52267e-12 -2.85191e-12 0)
(1.71665e-12 -2.82703e-12 0)
(1.90821e-12 -2.77339e-12 0)
(2.09539e-12 -2.69333e-12 0)
(2.27627e-12 -2.58893e-12 0)
(2.44926e-12 -2.46226e-12 0)
(2.61287e-12 -2.31524e-12 0)
(2.76567e-12 -2.14982e-12 0)
(2.90653e-12 -1.96775e-12 0)
(3.0344e-12 -1.77091e-12 0)
(3.1482e-12 -1.56104e-12 0)
(3.24716e-12 -1.33988e-12 0)
(3.33063e-12 -1.10913e-12 0)
(3.39794e-12 -8.70494e-13 0)
(3.44866e-12 -6.25693e-13 0)
(3.48256e-12 -3.76425e-13 0)
(3.49947e-12 -1.24453e-13 0)
(3.4993e-12 1.28388e-13 0)
(3.48206e-12 3.80311e-13 0)
(3.44784e-12 6.29382e-13 0)
(3.39682e-12 8.73847e-13 0)
(3.32924e-12 1.11206e-12 0)
(3.24552e-12 1.34229e-12 0)
(3.14631e-12 1.56287e-12 0)
(3.03231e-12 1.77212e-12 0)
(2.90431e-12 1.96832e-12 0)
(2.76332e-12 2.14965e-12 0)
(2.61042e-12 2.31438e-12 0)
(2.44681e-12 2.46071e-12 0)
(2.27385e-12 2.58675e-12 0)
(2.09304e-12 2.69056e-12 0)
(1.90599e-12 2.77011e-12 0)
(1.7145e-12 2.82329e-12 0)
(1.52066e-12 2.8479e-12 0)
(1.32665e-12 2.84145e-12 0)
(1.13462e-12 2.8013e-12 0)
(9.47362e-13 2.72455e-12 0)
(7.68012e-13 2.60793e-12 0)
(5.99368e-13 2.44794e-12 0)
(4.43566e-13 2.2402e-12 0)
(3.06122e-13 1.97927e-12 0)
(1.9145e-13 1.66181e-12 0)
(9.67887e-14 1.28025e-12 0)
(3.43293e-14 8.25967e-13 0)
(4.97456e-16 3.10962e-13 0)
(-3.35877e-16 -3.26079e-13 0)
(2.95064e-14 -8.69607e-13 0)
(7.9253e-14 -1.35023e-12 0)
(1.5483e-13 -1.75696e-12 0)
(2.50387e-13 -2.09682e-12 0)
(3.62618e-13 -2.37545e-12 0)
(4.88929e-13 -2.59861e-12 0)
(6.27307e-13 -2.7707e-12 0)
(7.74769e-13 -2.8959e-12 0)
(9.28318e-13 -2.97852e-12 0)
(1.08591e-12 -3.02197e-12 0)
(1.24543e-12 -3.02908e-12 0)
(1.4048e-12 -3.00298e-12 0)
(1.5622e-12 -2.94625e-12 0)
(1.71604e-12 -2.86133e-12 0)
(1.86474e-12 -2.75048e-12 0)
(2.00693e-12 -2.61589e-12 0)
(2.14141e-12 -2.45971e-12 0)
(2.26708e-12 -2.28391e-12 0)
(2.38289e-12 -2.09044e-12 0)
(2.48793e-12 -1.88123e-12 0)
(2.5815e-12 -1.65821e-12 0)
(2.66287e-12 -1.42314e-12 0)
(2.73142e-12 -1.17794e-12 0)
(2.78671e-12 -9.24416e-13 0)
(2.82839e-12 -6.64356e-13 0)
(2.85625e-12 -3.99586e-13 0)
(2.87013e-12 -1.32018e-13 0)
(2.87001e-12 1.36442e-13 0)
(2.85584e-12 4.03882e-13 0)
(2.82764e-12 6.68393e-13 0)
(2.78561e-12 9.28145e-13 0)
(2.72999e-12 1.18124e-12 0)
(2.66114e-12 1.42592e-12 0)
(2.57953e-12 1.66037e-12 0)
(2.48575e-12 1.88274e-12 0)
(2.38048e-12 2.09121e-12 0)
(2.26452e-12 2.28394e-12 0)
(2.13877e-12 2.45902e-12 0)
(2.00423e-12 2.61451e-12 0)
(1.86201e-12 2.74842e-12 0)
(1.71333e-12 2.85864e-12 0)
(1.55958e-12 2.94304e-12 0)
(1.40226e-12 2.99934e-12 0)
(1.24305e-12 3.02516e-12 0)
(1.08369e-12 3.01782e-12 0)
(9.26122e-13 2.97442e-12 0)
(7.73014e-13 2.89201e-12 0)
(6.25901e-13 2.76705e-12 0)
(4.87187e-13 2.59539e-12 0)
(3.61533e-13 2.37318e-12 0)
(2.49849e-13 2.096e-12 0)
(1.53132e-13 1.7564e-12 0)
(7.87346e-14 1.34983e-12 0)
(2.93738e-14 8.71232e-13 0)
(2.49941e-16 3.26159e-13 0)
(-1.02542e-16 -3.38276e-13 0)
(2.29715e-14 -9.05072e-13 0)
(6.14685e-14 -1.40665e-12 0)
(1.19764e-13 -1.83256e-12 0)
(1.93848e-13 -2.18916e-12 0)
(2.81117e-13 -2.48193e-12 0)
(3.79288e-13 -2.71647e-12 0)
(4.87226e-13 -2.89755e-12 0)
(6.02039e-13 -3.02967e-12 0)
(7.21442e-13 -3.117e-12 0)
(8.44454e-13 -3.16312e-12 0)
(9.68954e-13 -3.17105e-12 0)
(1.09323e-12 -3.14395e-12 0)
(1.21608e-12 -3.0848e-12 0)
(1.33621e-12 -2.99597e-12 0)
(1.45232e-12 -2.87997e-12 0)
(1.56335e-12 -2.73905e-12 0)
(1.66836e-12 -2.57547e-12 0)
(1.76646e-12 -2.3913e-12 0)
(1.85689e-12 -2.18872e-12 0)
(1.93893e-12 -1.9696e-12 0)
(2.01195e-12 -1.736e-12 0)
(2.07543e-12 -1.48985e-12 0)
(2.12894e-12 -1.23308e-12 0)
(2.17212e-12 -9.67559e-13 0)
(2.2047e-12 -6.95271e-13 0)
(2.22646e-12 -4.18096e-13 0)
(2.23726e-12 -1.38044e-13 0)
(2.23707e-12 1.42952e-13 0)
(2.22591e-12 4.22854e-13 0)
(2.20385e-12 6.99741e-13 0)
(2.171e-12 9.71634e-13 0)
(2.12751e-12 1.23665e-12 0)
(2.0737e-12 1.49286e-12 0)
(2.00993e-12 1.73837e-12 0)
(1.93665e-12 1.9713e-12 0)
(1.85442e-12 2.18965e-12 0)
(1.76384e-12 2.39152e-12 0)
(1.66561e-12 2.57491e-12 0)
(1.56052e-12 2.73776e-12 0)
(1.44941e-12 2.87797e-12 0)
(1.33331e-12 2.99335e-12 0)
(1.21326e-12 3.08163e-12 0)
(1.09044e-12 3.14034e-12 0)
(9.66201e-13 3.16707e-12 0)
(8.42019e-13 3.15895e-12 0)
(7.19208e-13 3.1129e-12 0)
(5.99737e-13 3.02569e-12 0)
(4.8531e-13 2.89375e-12 0)
(3.78149e-13 2.71335e-12 0)
(2.79916e-13 2.47931e-12 0)
(1.92365e-13 2.18688e-12 0)
(1.19636e-13 1.83184e-12 0)
(6.12353e-14 1.4073e-12 0)
(2.15724e-14 9.0511e-13 0)
(4.2869e-16 3.38553e-13 0)
(-2.1712e-16 -3.4754e-13 0)
(1.6473e-14 -9.31725e-13 0)
(4.38012e-14 -1.44922e-12 0)
(8.53516e-14 -1.88951e-12 0)
(1.38466e-13 -2.25835e-12 0)
(2.00874e-13 -2.56169e-12 0)
(2.70978e-13 -2.8049e-12 0)
(3.48136e-13 -2.99297e-12 0)
(4.30287e-13 -3.13047e-12 0)
(5.15719e-13 -3.22136e-12 0)
(6.03915e-13 -3.26945e-12 0)
(6.92862e-13 -3.27802e-12 0)
(7.82059e-13 -3.25026e-12 0)
(8.70006e-13 -3.18924e-12 0)
(9.56082e-13 -3.0975e-12 0)
(1.03927e-12 -2.97755e-12 0)
(1.11883e-12 -2.83186e-12 0)
(1.19407e-12 -2.66271e-12 0)
(1.26434e-12 -2.4723e-12 0)
(1.32911e-12 -2.26273e-12 0)
(1.38787e-12 -2.03619e-12 0)
(1.44017e-12 -1.79459e-12 0)
(1.48566e-12 -1.54005e-12 0)
(1.52401e-12 -1.27451e-12 0)
(1.55492e-12 -1.00001e-12 0)
(1.57821e-12 -7.18506e-13 0)
(1.59375e-12 -4.32033e-13 0)
(1.60146e-12 -1.4256e-13 0)
(1.60132e-12 1.47838e-13 0)
(1.59328e-12 4.37151e-13 0)
(1.57737e-12 7.23385e-13 0)
(1.55373e-12 1.0045e-12 0)
(1.52252e-12 1.27851e-12 0)
(1.4839e-12 1.54346e-12 0)
(1.43818e-12 1.79734e-12 0)
(1.38562e-12 2.03818e-12 0)
(1.32663e-12 2.26401e-12 0)
(1.26169e-12 2.47275e-12 0)
(1.19127e-12 2.66236e-12 0)
(1.11591e-12 2.83072e-12 0)
(1.03628e-12 2.97566e-12 0)
(9.5308e-13 3.09492e-12 0)
(8.67033e-13 3.18607e-12 0)
(7.79083e-13 3.24656e-12 0)
(6.89985e-13 3.27394e-12 0)
(6.01318e-13 3.26518e-12 0)
(5.13183e-13 3.21693e-12 0)
(4.28006e-13 3.12622e-12 0)
(3.46503e-13 2.9891e-12 0)
(2.69123e-13 2.80117e-12 0)
(1.99193e-13 2.55861e-12 0)
(1.38332e-13 2.25642e-12 0)
(8.51307e-14 1.8877e-12 0)
(4.27355e-14 1.44799e-12 0)
(1.58264e-14 9.32204e-13 0)
(-1.00751e-16 3.47263e-13 0)
(-3.05168e-16 -3.5363e-13 0)
(1.01461e-14 -9.49367e-13 0)
(2.65397e-14 -1.47758e-12 0)
(5.14976e-14 -1.92719e-12 0)
(8.37047e-14 -2.30442e-12 0)
(1.21307e-13 -2.61487e-12 0)
(1.63354e-13 -2.86405e-12 0)
(2.09847e-13 -3.05684e-12 0)
(2.59269e-13 -3.19779e-12 0)
(3.10578e-13 -3.29103e-12 0)
(3.64597e-13 -3.3401e-12 0)
(4.16533e-13 -3.34877e-12 0)
(4.71275e-13 -3.32126e-12 0)
(5.24018e-13 -3.25907e-12 0)
(5.75792e-13 -3.16537e-12 0)
(6.2582e-13 -3.04279e-12 0)
(6.73626e-13 -2.89392e-12 0)
(7.18853e-13 -2.72104e-12 0)
(7.61135e-13 -2.52645e-12 0)
(8.00072e-13 -2.31227e-12 0)
(8.354e-13 -2.0807e-12 0)
(8.66858e-13 -1.83379e-12 0)
(8.94171e-13 -1.57365e-12 0)
(9.17185e-13 -1.30228e-12 0)
(9.3575e-13 -1.02177e-12 0)
(9.49745e-13 -7.34062e-13 0)
(9.59079e-13 -4.41306e-13 0)
(9.63656e-13 -1.45503e-13 0)
(9.63443e-13 1.51223e-13 0)
(9.58533e-13 4.46844e-13 0)
(9.48931e-13 7.39292e-13 0)
(9.34655e-13 1.02658e-12 0)
(9.15804e-13 1.30662e-12 0)
(8.92486e-13 1.57739e-12 0)
(8.64872e-13 1.83689e-12 0)
(8.33195e-13 2.08301e-12 0)
(7.97657e-13 2.31382e-12 0)
(7.58511e-13 2.52715e-12 0)
(7.16085e-13 2.72091e-12 0)
(6.70723e-13 2.89297e-12 0)
(6.2281e-13 3.04106e-12 0)
(5.72759e-13 3.16288e-12 0)
(5.21012e-13 3.25596e-12 0)
(4.68255e-13 3.31759e-12 0)
(4.1362e-13 3.34468e-12 0)
(3.61804e-13 3.33574e-12 0)
(3.08123e-13 3.28652e-12 0)
(2.5701e-13 3.19332e-12 0)
(2.07643e-13 3.0525e-12 0)
(1.61959e-13 2.86025e-12 0)
(1.20675e-13 2.61167e-12 0)
(8.21211e-14 2.30122e-12 0)
(5.0629e-14 1.92529e-12 0)
(2.71674e-14 1.47691e-12 0)
(9.25068e-15 9.48637e-13 0)
(4.75991e-16 3.53402e-13 0)
(-2.16963e-16 -3.56678e-13 0)
(3.72108e-15 -9.58323e-13 0)
(9.41839e-15 -1.49179e-12 0)
(1.79537e-14 -1.9462e-12 0)
(2.92431e-14 -2.32762e-12 0)
(4.21325e-14 -2.64164e-12 0)
(5.61637e-14 -2.8937e-12 0)
(7.20346e-14 -3.08876e-12 0)
(8.87287e-14 -3.23144e-12 0)
(1.05481e-13 -3.32591e-12 0)
(1.23708e-13 -3.37606e-12 0)
(1.416e-13 -3.3858e-12 0)
(1.61297e-13 -3.35707e-12 0)
(1.7801e-13 -3.29387e-12 0)
(1.95252e-13 -3.19913e-12 0)
(2.11972e-13 -3.07536e-12 0)
(2.27933e-13 -2.92493e-12 0)
(2.4304e-13 -2.75021e-12 0)
(2.57167e-13 -2.55348e-12 0)
(2.70187e-13 -2.33701e-12 0)
(2.81975e-13 -2.10291e-12 0)
(2.92444e-13 -1.85337e-12 0)
(3.01561e-13 -1.59038e-12 0)
(3.09242e-13 -1.31609e-12 0)
(3.15441e-13 -1.0325e-12 0)
(3.20078e-13 -7.41751e-13 0)
(3.23104e-13 -4.45851e-13 0)
(3.24535e-13 -1.46953e-13 0)
(3.24358e-13 1.5295e-13 0)
(3.22587e-13 4.5176e-13 0)
(3.19248e-13 7.47375e-13 0)
(3.14352e-13 1.03771e-12 0)
(3.07907e-13 1.32075e-12 0)
(2.99999e-13 1.59442e-12 0)
(2.90629e-13 1.8567e-12 0)
(2.79906e-13 2.10553e-12 0)
(2.67906e-13 2.33879e-12 0)
(2.5468e-13 2.55441e-12 0)
(2.40399e-13 2.75027e-12 0)
(2.25149e-13 2.92413e-12 0)
(2.0905e-13 3.07376e-12 0)
(1.92299e-13 3.19676e-12 0)
(1.75076e-13 3.2908e-12 0)
(1.58318e-13 3.35343e-12 0)
(1.38724e-13 3.38172e-12 0)
(1.21012e-13 3.37159e-12 0)
(1.02931e-13 3.32127e-12 0)
(8.63812e-14 3.22676e-12 0)
(7.05207e-14 3.08421e-12 0)
(5.46062e-14 2.88933e-12 0)
(3.99605e-14 2.63785e-12 0)
(2.90928e-14 2.32476e-12 0)
(1.87672e-14 1.94373e-12 0)
(7.90625e-15 1.48982e-12 0)
(2.57652e-15 9.58099e-13 0)
(-1.33348e-16 3.56159e-13 0)
(-2.44799e-16 -3.56872e-13 0)
(-2.29883e-15 -9.58492e-13 0)
(-7.4967e-15 -1.49219e-12 0)
(-1.556e-14 -1.94665e-12 0)
(-2.5077e-14 -2.328e-12 0)
(-3.6854e-14 -2.64199e-12 0)
(-5.07516e-14 -2.89397e-12 0)
(-6.54994e-14 -3.08897e-12 0)
(-8.13488e-14 -3.23162e-12 0)
(-9.78779e-14 -3.32607e-12 0)
(-1.15556e-13 -3.37617e-12 0)
(-1.32949e-13 -3.38589e-12 0)
(-1.52368e-13 -3.35714e-12 0)
(-1.6881e-13 -3.29393e-12 0)
(-1.85769e-13 -3.19917e-12 0)
(-2.02286e-13 -3.07538e-12 0)
(-2.18104e-13 -2.92493e-12 0)
(-2.33085e-13 -2.75018e-12 0)
(-2.47121e-13 -2.55344e-12 0)
(-2.60087e-13 -2.33694e-12 0)
(-2.7188e-13 -2.10282e-12 0)
(-2.82363e-13 -1.85318e-12 0)
(-2.91485e-13 -1.59016e-12 0)
(-2.99203e-13 -1.31585e-12 0)
(-3.05451e-13 -1.03228e-12 0)
(-3.102e-13 -7.41572e-13 0)
(-3.13442e-13 -4.45728e-13 0)
(-3.15161e-13 -1.46818e-13 0)
(-3.15301e-13 1.53067e-13 0)
(-3.13878e-13 4.51842e-13 0)
(-3.10926e-13 7.47466e-13 0)
(-3.06424e-13 1.03784e-12 0)
(-3.00403e-13 1.3209e-12 0)
(-2.92922e-13 1.59462e-12 0)
(-2.83995e-13 1.85688e-12 0)
(-2.73727e-13 2.10572e-12 0)
(-2.62183e-13 2.33897e-12 0)
(-2.49404e-13 2.5546e-12 0)
(-2.35531e-13 2.75044e-12 0)
(-2.20683e-13 2.92428e-12 0)
(-2.04986e-13 3.07389e-12 0)
(-1.88555e-13 3.19689e-12 0)
(-1.7159e-13 3.29089e-12 0)
(-1.55147e-13 3.35349e-12 0)
(-1.3573e-13 3.38176e-12 0)
(-1.18081e-13 3.37162e-12 0)
(-1.00197e-13 3.32126e-12 0)
(-8.35074e-14 3.22665e-12 0)
(-6.77312e-14 3.08408e-12 0)
(-5.20537e-14 2.88946e-12 0)
(-3.69589e-14 2.63779e-12 0)
(-2.66342e-14 2.32402e-12 0)
(-1.71294e-14 1.94386e-12 0)
(-6.48133e-15 1.49051e-12 0)
(-2.94533e-15 9.57469e-13 0)
(3.66888e-16 3.56213e-13 0)
(-5.31916e-16 -3.53958e-13 0)
(-8.53763e-15 -9.50283e-13 0)
(-2.47263e-14 -1.47863e-12 0)
(-4.90553e-14 -1.92829e-12 0)
(-7.95111e-14 -2.30552e-12 0)
(-1.16052e-13 -2.61588e-12 0)
(-1.57995e-13 -2.86486e-12 0)
(-2.03469e-13 -3.05753e-12 0)
(-2.52123e-13 -3.19833e-12 0)
(-3.03209e-13 -3.29146e-12 0)
(-3.56701e-13 -3.34046e-12 0)
(-4.0816e-13 -3.34905e-12 0)
(-4.62666e-13 -3.32146e-12 0)
(-5.1515e-13 -3.25921e-12 0)
(-5.66645e-13 -3.16544e-12 0)
(-6.16479e-13 -3.04284e-12 0)
(-6.64134e-13 -2.8939e-12 0)
(-7.09242e-13 -2.72097e-12 0)
(-7.51427e-13 -2.52633e-12 0)
(-7.90311e-13 -2.3121e-12 0)
(-8.25575e-13 -2.08047e-12 0)
(-8.57022e-13 -1.83349e-12 0)
(-8.84423e-13 -1.5733e-12 0)
(-9.07511e-13 -1.30186e-12 0)
(-9.26182e-13 -1.02131e-12 0)
(-9.40325e-13 -7.3361e-13 0)
(-9.49806e-13 -4.40904e-13 0)
(-9.54622e-13 -1.45116e-13 0)
(-9.54757e-13 1.51628e-13 0)
(-9.50155e-13 4.47319e-13 0)
(-9.40853e-13 7.39812e-13 0)
(-9.2694e-13 1.02715e-12 0)
(-9.08482e-13 1.30716e-12 0)
(-8.8562e-13 1.57798e-12 0)
(-8.58472e-13 1.83746e-12 0)
(-8.27217e-13 2.08362e-12 0)
(-7.92105e-13 2.31439e-12 0)
(-7.53395e-13 2.52773e-12 0)
(-7.11397e-13 2.72143e-12 0)
(-6.6642e-13 2.89347e-12 0)
(-6.18868e-13 3.04149e-12 0)
(-5.69142e-13 3.16328e-12 0)
(-5.17668e-13 3.25627e-12 0)
(-4.65199e-13 3.31783e-12 0)
(-4.10713e-13 3.34484e-12 0)
(-3.58949e-13 3.33583e-12 0)
(-3.05559e-13 3.28645e-12 0)
(-2.54292e-13 3.19327e-12 0)
(-2.04647e-13 3.05241e-12 0)
(-1.59377e-13 2.8598e-12 0)
(-1.18598e-13 2.61133e-12 0)
(-7.95329e-14 2.30175e-12 0)
(-4.76342e-14 1.92469e-12 0)
(-2.66066e-14 1.47611e-12 0)
(-1.04367e-14 9.49272e-13 0)
(-6.63129e-17 3.53192e-13 0)
(-2.19639e-16 -3.48062e-13 0)
(-1.48529e-14 -9.3314e-13 0)
(-4.16694e-14 -1.45107e-12 0)
(-8.29616e-14 -1.89121e-12 0)
(-1.3443e-13 -2.26006e-12 0)
(-1.95739e-13 -2.56325e-12 0)
(-2.65849e-13 -2.8063e-12 0)
(-3.42072e-13 -2.99422e-12 0)
(-4.23495e-13 -3.13143e-12 0)
(-5.08841e-13 -3.22213e-12 0)
(-5.96598e-13 -3.27014e-12 0)
(-6.85082e-13 -3.27855e-12 0)
(-7.74057e-13 -3.25066e-12 0)
(-8.61777e-13 -3.18956e-12 0)
(-9.4763e-13 -3.09771e-12 0)
(-1.03063e-12 -2.97771e-12 0)
(-1.11004e-12 -2.83191e-12 0)
(-1.18516e-12 -2.66271e-12 0)
(-1.25534e-12 -2.47218e-12 0)
(-1.32006e-12 -2.26259e-12 0)
(-1.3788e-12 -2.03588e-12 0)
(-1.43111e-12 -1.7943e-12 0)
(-1.47659e-12 -1.53963e-12 0)
(-1.51497e-12 -1.27409e-12 0)
(-1.54599e-12 -9.99481e-13 0)
(-1.56945e-12 -7.17971e-13 0)
(-1.58518e-12 -4.31336e-13 0)
(-1.59308e-12 -1.4187e-13 0)
(-1.59313e-12 1.48677e-13 0)
(-1.58537e-12 4.38006e-13 0)
(-1.56982e-12 7.24364e-13 0)
(-1.54659e-12 1.00546e-12 0)
(-1.51575e-12 1.2796e-12 0)
(-1.47751e-12 1.5445e-12 0)
(-1.43217e-12 1.7985e-12 0)
(-1.38004e-12 2.03927e-12 0)
(-1.32148e-12 2.26514e-12 0)
(-1.25694e-12 2.47377e-12 0)
(-1.18688e-12 2.6634e-12 0)
(-1.1119e-12 2.83164e-12 0)
(-1.03264e-12 2.97656e-12 0)
(-9.49714e-13 3.09563e-12 0)
(-8.63921e-13 3.18674e-12 0)
(-7.76245e-13 3.24706e-12 0)
(-6.8731e-13 3.27434e-12 0)
(-5.9873e-13 3.2654e-12 0)
(-5.10679e-13 3.21711e-12 0)
(-4.25265e-13 3.12609e-12 0)
(-3.44225e-13 2.98886e-12 0)
(-2.6694e-13 2.80125e-12 0)
(-1.95372e-13 2.55824e-12 0)
(-1.36312e-13 2.25531e-12 0)
(-8.50486e-14 1.88775e-12 0)
(-4.03752e-14 1.44864e-12 0)
(-1.5586e-14 9.31481e-13 0)
(4.67582e-16 3.47318e-13 0)
(-6.0914e-16 -3.39053e-13 0)
(-2.13186e-14 -9.07257e-13 0)
(-5.94354e-14 -1.40927e-12 0)
(-1.17204e-13 -1.8351e-12 0)
(-1.89953e-13 -2.19136e-12 0)
(-2.76312e-13 -2.48387e-12 0)
(-3.74665e-13 -2.7181e-12 0)
(-4.81675e-13 -2.89898e-12 0)
(-5.95832e-13 -3.03096e-12 0)
(-7.15349e-13 -3.11799e-12 0)
(-8.37963e-13 -3.16391e-12 0)
(-9.62032e-13 -3.17166e-12 0)
(-1.0862e-12 -3.14447e-12 0)
(-1.20886e-12 -3.08514e-12 0)
(-1.32876e-12 -2.99624e-12 0)
(-1.4447e-12 -2.88005e-12 0)
(-1.55562e-12 -2.7391e-12 0)
(-1.6605e-12 -2.57534e-12 0)
(-1.75852e-12 -2.39117e-12 0)
(-1.84886e-12 -2.18837e-12 0)
(-1.93086e-12 -1.96924e-12 0)
(-2.00388e-12 -1.73543e-12 0)
(-2.06742e-12 -1.48923e-12 0)
(-2.121e-12 -1.23229e-12 0)
(-2.16425e-12 -9.66779e-13 0)
(-2.19688e-12 -6.94351e-13 0)
(-2.21875e-12 -4.17217e-13 0)
(-2.22975e-12 -1.37023e-13 0)
(-2.22982e-12 1.43938e-13 0)
(-2.21891e-12 4.24004e-13 0)
(-2.19711e-12 7.00899e-13 0)
(-2.16454e-12 9.72972e-13 0)
(-2.12139e-12 1.23803e-12 0)
(-2.06794e-12 1.49438e-12 0)
(-2.00456e-12 1.73986e-12 0)
(-1.93168e-12 1.97283e-12 0)
(-1.84982e-12 2.19111e-12 0)
(-1.7596e-12 2.39297e-12 0)
(-1.66172e-12 2.57621e-12 0)
(-1.55696e-12 2.73898e-12 0)
(-1.44619e-12 2.87901e-12 0)
(-1.33034e-12 2.99428e-12 0)
(-1.21048e-12 3.08234e-12 0)
(-1.08796e-12 3.14091e-12 0)
(-9.63821e-13 3.16746e-12 0)
(-8.39586e-13 3.15915e-12 0)
(-7.17178e-13 3.11282e-12 0)
(-5.97614e-13 3.02558e-12 0)
(-4.82276e-13 2.89357e-12 0)
(-3.75898e-13 2.71237e-12 0)
(-2.79275e-13 2.47876e-12 0)
(-1.89667e-13 2.1871e-12 0)
(-1.15288e-13 1.83084e-12 0)
(-6.19603e-14 1.40585e-12 0)
(-2.33933e-14 9.05955e-13 0)
(-4.68015e-16 3.38054e-13 0)
(-2.69196e-16 -3.26865e-13 0)
(-2.80018e-14 -8.72468e-13 0)
(-7.70139e-14 -1.35306e-12 0)
(-1.52222e-13 -1.75981e-12 0)
(-2.46489e-13 -2.0994e-12 0)
(-3.58089e-13 -2.3777e-12 0)
(-4.84836e-13 -2.60019e-12 0)
(-6.22714e-13 -2.77188e-12 0)
(-7.69539e-13 -2.89697e-12 0)
(-9.2311e-13 -2.97933e-12 0)
(-1.08054e-12 -3.0225e-12 0)
(-1.23981e-12 -3.02948e-12 0)
(-1.39902e-12 -3.00321e-12 0)