/*--------------------------------*- C++ -*----------------------------------*\
| =========                 |                                                 |
| \\      /  F ield         | OpenFOAM: The Open Source CFD Toolbox           |
|  \\    /   O peration     | Version:  5.0                                   |
|   \\  /    A nd           | Web:      www.OpenFOAM.org                      |
|    \\/     M anipulation  |                                                 |
\*---------------------------------------------------------------------------*/
FoamFile
{
    version     2.0;
    format      ascii;
    class       surfaceScalarField;
    location    "1.1";
    object      phi;
}
// * * * * * * * * * * * * * * * * * * * * * * * * * * * * * * * * * * * * * //

dimensions      [0 3 -1 0 0 0 0];

internalField   nonuniform List<scalar> 
85
(
0.00020171
1.05558e-09
0.000201713
-2.45185e-09
0.000201711
1.30403e-09
0.00020175
-3.85462e-08
0.000201896
-1.4656e-07
0.000206799
-4.90296e-06
0.000212076
-5.2762e-06
0.000212744
-6.68744e-07
0.000212812
-6.75913e-08
-3.971e-07
0.000185573
2.70952e-09
0.000185576
-6.03607e-09
0.000185571
6.96098e-09
0.0001856
-6.80408e-08
0.00018555
-9.63031e-08
0.000183486
-2.83864e-06
0.000181442
-3.23256e-06
0.000181314
-5.40312e-07
0.000181364
-1.18139e-07
-2.75088e-07
0.0001533
3.28316e-09
0.000153301
-7.08279e-09
0.000153298
1.03353e-08
0.000153288
-5.85871e-08
0.000153208
-1.63591e-08
0.000151699
-1.32954e-06
0.00015007
-1.60309e-06
0.000149815
-2.85402e-07
0.000149778
-8.13365e-08
-1.47125e-07
0.000104891
2.08773e-09
0.000104888
-4.33929e-09
0.000104891
7.27469e-09
0.000104859
-2.69264e-08
0.000104827
1.57222e-08
0.000103861
-3.63086e-07
0.000102725
-4.66739e-07
0.000102516
-7.67817e-08
0.000102459
-2.41876e-08
-5.08932e-08
4.03438e-05
4.03395e-05
4.03467e-05
4.03198e-05
4.03355e-05
3.99725e-05
3.95057e-05
3.94289e-05
3.94048e-05
)
;

boundaryField
{
    top
    {
        type            calculated;
        value           uniform 0;
    }
    bottom
    {
        type            symmetryPlane;
        value           uniform 0;
    }
    inlet
    {
        type            calculated;
        value           nonuniform List<scalar> 5(-0.000201711 -0.000185575 -0.000153301 -0.00010489 -4.03417e-05);
    }
    outlet
    {
        type            calculated;
        value           nonuniform List<scalar> 5(0.000213209 0.000181242 0.00014965 0.000102362 3.93539e-05);
    }
    frontAndBack
    {
        type            empty;
        value           nonuniform 0();
    }
}


// ************************************************************************* //
