/*--------------------------------*- C++ -*----------------------------------*\
| =========                 |                                                 |
| \\      /  F ield         | OpenFOAM: The Open Source CFD Toolbox           |
|  \\    /   O peration     | Version:  5.0                                   |
|   \\  /    A nd           | Web:      www.OpenFOAM.org                      |
|    \\/     M anipulation  |                                                 |
\*---------------------------------------------------------------------------*/
FoamFile
{
    version     2.0;
    format      ascii;
    class       volVectorField;
    location    "0.4";
    object      U;
}
// * * * * * * * * * * * * * * * * * * * * * * * * * * * * * * * * * * * * * //

dimensions      [0 1 -1 0 0 0 0];

internalField   nonuniform List<vector> 
25
(
(1.00743 -0.000999401 6.64654e-23)
(1.06021 0.00117031 8.36034e-23)
(1.06253 -0.000127807 -4.06198e-23)
(1.06402 2.07358e-05 -4.62128e-25)
(1.06567 -0.00506616 2.01624e-23)
(0.926349 -0.00420689 1.64439e-23)
(0.908406 -0.0053655 5.31339e-23)
(0.906475 -0.000752827 7.21049e-23)
(0.906799 -0.000125627 -4.69765e-25)
(0.906431 0.000742005 -9.56712e-23)
(0.764984 -0.00252144 2.65175e-23)
(0.751867 -0.00292391 3.07965e-23)
(0.749135 -0.000459453 2.97412e-23)
(0.749151 -0.000106585 1.60282e-25)
(0.748398 4.70397e-05 -3.19465e-23)
(0.523384 -0.000774421 6.58589e-23)
(0.515018 -0.000899911 3.8989e-23)
(0.512635 -0.00015971 1.81043e-24)
(0.51257 -5.36675e-05 -2.75844e-23)
(0.5119 -0.000159753 -2.79958e-24)
(0.201347 -0.000142903 3.81382e-23)
(0.198222 -0.000177959 1.98308e-23)
(0.19715 -3.29802e-05 -4.14073e-25)
(0.197136 -1.37777e-05 0)
(0.196821 -5.55207e-05 0)
)
;

boundaryField
{
    top
    {
        type            fixedValue;
        value           uniform (0 0 0);
    }
    bottom
    {
        type            symmetryPlane;
    }
    inlet
    {
        type            pressureInletVelocity;
        value           nonuniform 0();
    }
    outlet
    {
        type            inletOutlet;
        inletValue      uniform (1 0 0);
        value           nonuniform List<vector> 5((1.06567 -0.00506616 2.01624e-23) (0.906431 0.000742005 -9.56712e-23) (0.748398 4.70397e-05 -3.19465e-23) (0.5119 -0.000159753 -2.79958e-24) (0.196821 -5.55207e-05 0));
    }
    frontAndBack
    {
        type            empty;
    }
    procBoundary1to0
    {
        type            processor;
        value           nonuniform List<vector> 5((1.01023 -6.76223e-05 -4.75452e-25) (0.928876 -0.000140162 -2.82116e-23) (0.76699 -6.59248e-05 -5.63203e-23) (0.52468 8.17645e-06 5.72584e-23) (0.201797 1.01558e-05 4.02453e-23));
    }
}


// ************************************************************************* //
