/*--------------------------------*- C++ -*----------------------------------*\
| =========                 |                                                 |
| \\      /  F ield         | OpenFOAM: The Open Source CFD Toolbox           |
|  \\    /   O peration     | Version:  5.0                                   |
|   \\  /    A nd           | Web:      www.OpenFOAM.org                      |
|    \\/     M anipulation  |                                                 |
\*---------------------------------------------------------------------------*/
FoamFile
{
    version     2.0;
    format      ascii;
    class       surfaceScalarField;
    location    "3.2";
    object      phi;
}
// * * * * * * * * * * * * * * * * * * * * * * * * * * * * * * * * * * * * * //

dimensions      [0 3 -1 0 0 0 0];

internalField   nonuniform List<scalar> 
85
(
0.000196879
5.49794e-07
0.000197002
-1.23459e-07
0.000196983
1.94952e-08
0.000196711
2.71301e-07
0.000196641
7.02478e-08
0.000192356
4.28482e-06
0.00018793
4.42602e-06
0.000187254
6.76472e-07
0.000186887
3.6693e-07
3.00882e-07
0.000157826
-1.95955e-07
0.000157692
1.02422e-08
0.00015768
3.18435e-08
0.000157779
1.72587e-07
0.000157431
4.17702e-07
0.000158711
3.00495e-06
0.000159521
3.6161e-06
0.000159559
6.37893e-07
0.000159656
2.70216e-07
9.80142e-07
0.000118599
-1.21248e-06
0.00011835
2.59257e-07
0.00011835
3.14832e-08
0.000118556
-3.34393e-08
0.000118222
7.52261e-07
0.000120553
6.73585e-07
0.000122444
1.72494e-06
0.000122798
2.8372e-07
0.000123167
-9.8507e-08
1.61505e-06
7.90632e-05
-1.2839e-06
7.89633e-05
3.59212e-07
7.89822e-05
1.25414e-08
7.90885e-05
-1.39643e-07
7.91651e-05
6.75654e-07
8.0192e-05
-3.53397e-07
8.13263e-05
5.90688e-07
8.15673e-05
4.2706e-08
8.18053e-05
-3.36569e-07
1.40449e-06
3.92674e-05
3.96266e-05
3.96392e-05
3.94995e-05
4.01752e-05
3.98218e-05
4.04124e-05
4.04551e-05
4.01185e-05
)
;

boundaryField
{
    top
    {
        type            calculated;
        value           uniform 0;
    }
    bottom
    {
        type            symmetryPlane;
        value           uniform 0;
    }
    inlet
    {
        type            calculated;
        value           nonuniform List<scalar> 5(-0.000197428 -0.00015708 -0.000117582 -7.89918e-05 -4.05513e-05);
    }
    outlet
    {
        type            calculated;
        value           nonuniform List<scalar> 5(0.000186586 0.000158977 0.000122532 8.20158e-05 4.1523e-05);
    }
    frontAndBack
    {
        type            empty;
        value           nonuniform 0();
    }
}


// ************************************************************************* //
