/*--------------------------------*- C++ -*----------------------------------*\
| =========                 |                                                 |
| \\      /  F ield         | OpenFOAM: The Open Source CFD Toolbox           |
|  \\    /   O peration     | Version:  5.0                                   |
|   \\  /    A nd           | Web:      www.OpenFOAM.org                      |
|    \\/     M anipulation  |                                                 |
\*---------------------------------------------------------------------------*/
FoamFile
{
    version     2.0;
    format      ascii;
    class       volVectorField;
    location    "3.2";
    object      U;
}
// * * * * * * * * * * * * * * * * * * * * * * * * * * * * * * * * * * * * * //

dimensions      [0 1 -1 0 0 0 0];

internalField   nonuniform List<vector> 
50
(
(0.986277 0.00422366 6.14974e-23)
(0.985385 -7.58512e-06 -4.39737e-23)
(0.984007 1.70927e-06 -4.61724e-23)
(0.985873 5.919e-05 -4.61324e-23)
(0.981194 -0.00205176 3.29813e-23)
(0.985368 0.00241455 9.08011e-23)
(0.939611 0.000871293 1.29205e-23)
(0.937442 0.000170073 -4.53926e-23)
(0.936086 0.000102592 5.2081e-24)
(0.932829 -0.00212485 8.52115e-24)
(0.786148 0.00347634 -8.9557e-37)
(0.789623 -3.97384e-05 4.68481e-23)
(0.787758 3.18884e-05 5.37645e-26)
(0.789576 0.00024902 -3.73619e-23)
(0.786649 -0.00135348 -4.09478e-23)
(0.789872 0.00554134 -3.46581e-23)
(0.796566 0.00403345 -5.94647e-23)
(0.797959 0.00073676 6.57434e-23)
(0.798567 0.000340152 6.53974e-24)
(0.795582 -0.000823532 -1.4858e-22)
(0.589211 -8.74217e-05 -2.58733e-23)
(0.592921 0.000195237 -2.93324e-26)
(0.5913 3.30738e-05 2.75385e-23)
(0.592747 3.51395e-05 -5.57493e-23)
(0.591119 0.000274308 -5.46205e-23)
(0.593506 0.00254877 4.81441e-23)
(0.610722 0.00306307 4.06498e-23)
(0.613773 0.000478141 3.03822e-23)
(0.614966 2.75383e-05 -1.23599e-24)
(0.613648 -0.000456747 -5.72655e-23)
(0.39513 -0.00265942 -1.44185e-22)
(0.395006 0.000313428 3.1351e-23)
(0.394706 2.28795e-05 -4.12014e-23)
(0.39527 -9.5535e-05 -1.58898e-23)
(0.395297 0.00143894 -5.21571e-23)
(0.396745 -0.000590894 1.2299e-22)
(0.405155 0.00113932 1.1836e-23)
(0.407871 0.000148292 -2.58034e-24)
(0.407954 -0.000237213 -2.14725e-23)
(0.410056 0.00278345 -1.85502e-22)
(0.200824 -0.0113056 3.64524e-23)
(0.197127 4.40602e-05 1.57045e-23)
(0.19813 1.62378e-05 -4.94729e-23)
(0.197813 -2.8281e-06 -1.5066e-23)
(0.199138 0.00565553 3.40531e-23)
(0.199603 -0.00516681 7.95639e-25)
(0.200866 0.000632842 1.65038e-23)
(0.202405 0.000111795 1.10186e-24)
(0.20125 -1.56529e-05 0)
(0.205537 0.0115103 0)
)
;

boundaryField
{
    top
    {
        type            fixedValue;
        value           uniform (0 0 0);
    }
    bottom
    {
        type            symmetryPlane;
    }
    inlet
    {
        type            pressureInletVelocity;
        value           nonuniform List<vector> 5((0.987142 0 0) (0.785401 0 0) (0.587912 0 0) (0.394959 0 0) (0.202756 0 0));
    }
    outlet
    {
        type            inletOutlet;
        inletValue      uniform (1 0 0);
        value           nonuniform List<vector> 5((0.932829 -0.00212485 8.52115e-24) (0.795582 -0.000823532 -1.4858e-22) (0.613648 -0.000456747 -5.72655e-23) (0.410056 0.00278345 -1.85502e-22) (0.205537 0.0115103 0));
    }
    frontAndBack
    {
        type            empty;
    }
}


// ************************************************************************* //
