/*--------------------------------*- C++ -*----------------------------------*\
| =========                 |                                                 |
| \\      /  F ield         | OpenFOAM: The Open Source CFD Toolbox           |
|  \\    /   O peration     | Version:  5.0                                   |
|   \\  /    A nd           | Web:      www.OpenFOAM.org                      |
|    \\/     M anipulation  |                                                 |
\*---------------------------------------------------------------------------*/
FoamFile
{
    version     2.0;
    format      ascii;
    class       volScalarField;
    location    "88";
    object      p;
}
// * * * * * * * * * * * * * * * * * * * * * * * * * * * * * * * * * * * * * //

dimensions      [0 2 -2 0 0 0 0];

internalField   nonuniform List<scalar> 
1568
(
4.84715e-11
6.27272e-11
1.00236e-10
3.99566e-11
4.91135e-11
8.48173e-11
8.71356e-11
8.80798e-11
9.66698e-11
1.06413e-10
1.14707e-10
1.24212e-10
1.35025e-10
1.46252e-10
1.57103e-10
1.68159e-10
1.77902e-10
1.88096e-10
1.99591e-10
2.13808e-10
2.27627e-10
2.43534e-10
2.61378e-10
2.80876e-10
2.97885e-10
3.13998e-10
3.26221e-10
3.391e-10
3.5023e-10
3.63025e-10
3.74174e-10
3.8666e-10
3.97512e-10
4.09403e-10
4.18625e-10
4.285e-10
4.35737e-10
4.43926e-10
4.50031e-10
4.56483e-10
4.61196e-10
4.66699e-10
4.7079e-10
4.75743e-10
4.79609e-10
4.83391e-10
4.85981e-10
4.88693e-10
4.905e-10
4.92925e-10
4.93813e-10
4.95687e-10
5.06904e-10
5.01814e-10
5.11534e-10
5.10296e-10
8.08109e-11
-9.46128e-10
3.66417e-10
3.02893e-10
-9.21902e-12
1.19274e-10
1.67612e-10
1.49702e-10
1.51857e-10
1.69887e-10
1.80284e-10
1.86473e-10
1.90669e-10
1.99184e-10
2.12543e-10
2.28584e-10
2.41365e-10
2.57753e-10
2.68436e-10
2.80495e-10
2.86326e-10
2.97982e-10
2.99901e-10
3.08503e-10
3.12246e-10
3.28274e-10
3.31994e-10
3.45704e-10
3.4495e-10
3.61028e-10
3.58507e-10
3.64908e-10
3.56952e-10
3.65718e-10
3.6277e-10
3.76627e-10
3.73584e-10
3.85032e-10
3.84658e-10
3.93999e-10
3.95127e-10
4.07005e-10
4.06572e-10
4.10842e-10
4.0816e-10
4.12936e-10
4.15029e-10
4.21952e-10
4.23208e-10
4.3276e-10
4.37456e-10
4.40843e-10
4.62424e-10
3.8195e-10
5.17328e-10
5.02615e-10
1.49984e-10
4.61158e-11
1.08563e-10
1.27026e-10
-4.9261e-11
4.47983e-11
9.53626e-11
8.57201e-11
7.69581e-11
7.55538e-11
9.8608e-11
1.16709e-10
1.22473e-10
1.31639e-10
1.44219e-10
1.51985e-10
1.6347e-10
1.73754e-10
1.86595e-10
1.98394e-10
2.14697e-10
2.31108e-10
2.50676e-10
2.65068e-10
2.83925e-10
2.96781e-10
3.11229e-10
3.23776e-10
3.40566e-10
3.52047e-10
3.68213e-10
3.8943e-10
4.19184e-10
4.34988e-10
4.46809e-10
4.53616e-10
4.65177e-10
4.69145e-10
4.76761e-10
4.81204e-10
4.80796e-10
4.76066e-10
4.83273e-10
4.88202e-10
4.94862e-10
4.98347e-10
5.03674e-10
5.08287e-10
5.06901e-10
4.97847e-10
5.07875e-10
5.01892e-10
5.26892e-10
5.02777e-10
4.92099e-10
4.88123e-10
1.22946e-10
2.67085e-10
2.95117e-10
8.67448e-11
5.5411e-11
1.47219e-10
1.58724e-10
1.45911e-10
1.55986e-10
1.6761e-10
1.73333e-10
1.77526e-10
1.84795e-10
1.97477e-10
2.04756e-10
2.14567e-10
2.22985e-10
2.30525e-10
2.36715e-10
2.49085e-10
2.58583e-10
2.70035e-10
2.7805e-10
2.89628e-10
2.9924e-10
3.12683e-10
3.213e-10
3.33525e-10
3.41511e-10
3.51084e-10
3.54431e-10
3.58254e-10
3.59657e-10
3.63676e-10
3.69222e-10
3.78171e-10
3.84822e-10
3.93221e-10
3.98918e-10
4.10198e-10
4.18601e-10
4.29063e-10
4.35957e-10
4.42653e-10
4.45069e-10
4.47524e-10
4.49632e-10
4.55414e-10
4.57968e-10
4.59831e-10
4.64364e-10
4.68366e-10
4.96207e-10
4.35411e-10
5.15176e-10
4.8114e-10
9.34107e-11
5.54501e-11
7.86623e-11
3.88933e-11
1.16971e-10
1.77329e-10
1.65955e-10
1.55894e-10
1.66353e-10
1.81429e-10
1.88065e-10
1.91716e-10
1.97014e-10
2.04892e-10
2.12346e-10
2.21747e-10
2.32447e-10
2.43289e-10
2.53383e-10
2.62975e-10
2.71758e-10
2.79834e-10
2.88473e-10
2.97641e-10
3.06857e-10
3.16385e-10
3.25123e-10
3.30951e-10
3.37582e-10
3.44533e-10
3.51324e-10
3.55378e-10
3.59033e-10
3.61998e-10
3.70103e-10
3.77204e-10
3.82997e-10
3.88004e-10
3.935e-10
3.99014e-10
4.04189e-10
4.08745e-10
4.12902e-10
4.15767e-10
4.17987e-10
4.19978e-10
4.24548e-10
4.31242e-10
4.32097e-10
4.33957e-10
4.44841e-10
4.27271e-10
4.48693e-10
4.81531e-10
4.40966e-10
4.63786e-10
1.16064e-10
7.60884e-11
8.19899e-11
1.05892e-10
1.54615e-10
1.53148e-10
1.38594e-10
1.42445e-10
1.50206e-10
1.58517e-10
1.65735e-10
1.73348e-10
1.81527e-10
1.91121e-10
2.00092e-10
2.08181e-10
2.16807e-10
2.26463e-10
2.36289e-10
2.45416e-10
2.5463e-10
2.65457e-10
2.75963e-10
2.86319e-10
2.9582e-10
3.05578e-10
3.15306e-10
3.25006e-10
3.34552e-10
3.45286e-10
3.5516e-10
3.65433e-10
3.75976e-10
3.85432e-10
3.93044e-10
3.99935e-10
4.05744e-10
4.11979e-10
4.17042e-10
4.2169e-10
4.25288e-10
4.29115e-10
4.32504e-10
4.3511e-10
4.37725e-10
4.40456e-10
4.44276e-10
4.49524e-10
4.49302e-10
4.48536e-10
4.56178e-10
4.51327e-10
4.59334e-10
4.06589e-10
4.68685e-10
4.57865e-10
1.37526e-10
1.6178e-10
1.44254e-10
1.52157e-10
1.68289e-10
1.51278e-10
1.41295e-10
1.53394e-10
1.64742e-10
1.68553e-10
1.73754e-10
1.80944e-10
1.88371e-10
1.95883e-10
2.03451e-10
2.11288e-10
2.19437e-10
2.27486e-10
2.36184e-10
2.45275e-10
2.55008e-10
2.64848e-10
2.74856e-10
2.84663e-10
2.9476e-10
3.04447e-10
3.14516e-10
3.24238e-10
3.3434e-10
3.43476e-10
3.51532e-10
3.59812e-10
3.69901e-10
3.78723e-10
3.85768e-10
3.9188e-10
3.99352e-10
4.06093e-10
4.1218e-10
4.17768e-10
4.23294e-10
4.28262e-10
4.33537e-10
4.385e-10
4.42494e-10
4.4503e-10
4.48984e-10
4.53698e-10
4.50055e-10
4.48478e-10
4.64301e-10
4.47683e-10
4.50523e-10
4.73634e-10
4.52291e-10
4.44326e-10
1.50896e-10
1.92901e-10
1.59162e-10
1.52327e-10
1.71731e-10
1.64218e-10
1.58594e-10
1.69472e-10
1.80681e-10
1.82735e-10
1.87147e-10
1.93382e-10
2.00052e-10
2.06647e-10
2.13258e-10
2.2073e-10
2.2848e-10
2.36241e-10
2.44233e-10
2.52743e-10
2.61367e-10
2.70389e-10
2.79006e-10
2.87973e-10
2.96973e-10
3.06164e-10
3.1486e-10
3.23745e-10
3.32431e-10
3.40358e-10
3.47879e-10
3.55452e-10
3.61972e-10
3.68747e-10
3.75861e-10
3.82705e-10
3.89248e-10
3.95805e-10
4.01694e-10
4.07652e-10
4.12935e-10
4.17684e-10
4.22647e-10
4.2755e-10
4.30376e-10
4.32165e-10
4.36169e-10
4.4134e-10
4.39106e-10
4.38493e-10
4.48898e-10
4.42661e-10
4.51124e-10
4.12578e-10
4.51945e-10
4.35506e-10
1.63237e-10
1.93716e-10
1.60092e-10
1.53528e-10
1.80258e-10
1.75804e-10
1.7159e-10
1.79628e-10
1.87722e-10
1.91114e-10
1.94791e-10
1.98303e-10
2.04633e-10
2.11639e-10
2.17985e-10
2.24952e-10
2.32269e-10
2.39848e-10
2.47882e-10
2.55886e-10
2.63852e-10
2.72514e-10
2.80764e-10
2.89003e-10
2.9751e-10
3.05927e-10
3.14421e-10
3.22731e-10
3.30939e-10
3.38524e-10
3.46607e-10
3.54185e-10
3.61107e-10
3.67839e-10
3.75121e-10
3.81748e-10
3.8789e-10
3.93552e-10
3.99243e-10
4.04721e-10
4.0972e-10
4.14051e-10
4.18448e-10
4.22266e-10
4.24475e-10
4.26354e-10
4.30941e-10
4.35474e-10
4.32206e-10
4.3092e-10
4.42757e-10
4.29084e-10
4.3472e-10
4.38633e-10
4.2678e-10
4.25163e-10
1.78866e-10
2.08939e-10
1.67936e-10
1.63112e-10
1.92803e-10
1.85786e-10
1.80385e-10
1.86867e-10
1.91094e-10
1.93799e-10
1.97977e-10
2.02646e-10
2.08389e-10
2.1415e-10
2.19841e-10
2.2671e-10
2.33663e-10
2.4081e-10
2.48348e-10
2.56628e-10
2.6407e-10
2.71637e-10
2.79762e-10
2.88228e-10
2.96422e-10
3.04795e-10
3.13238e-10
3.21572e-10
3.29555e-10
3.37768e-10
3.45568e-10
3.53243e-10
3.60429e-10
3.67938e-10
3.75172e-10
3.81732e-10
3.87934e-10
3.93988e-10
3.99632e-10
4.04947e-10
4.09628e-10
4.1398e-10
4.18193e-10
4.22383e-10
4.24933e-10
4.2669e-10
4.30734e-10
4.35502e-10
4.32369e-10
4.30168e-10
4.39492e-10
4.28062e-10
4.38198e-10
4.16403e-10
4.24422e-10
4.19383e-10
1.92892e-10
2.24081e-10
1.79395e-10
1.76908e-10
2.0512e-10
1.94402e-10
1.86314e-10
1.92437e-10
1.97456e-10
1.98964e-10
2.01154e-10
2.07164e-10
2.1242e-10
2.17171e-10
2.2287e-10
2.2914e-10
2.35662e-10
2.42434e-10
2.49443e-10
2.56365e-10
2.64282e-10
2.72054e-10
2.80286e-10
2.8802e-10
2.96351e-10
3.04438e-10
3.12503e-10
3.20116e-10
3.28211e-10
3.36296e-10
3.43869e-10
3.51377e-10
3.5896e-10
3.66415e-10
3.73604e-10
3.80145e-10
3.86411e-10
3.92418e-10
3.98204e-10
4.03536e-10
4.08412e-10
4.12844e-10
4.1734e-10
4.21737e-10
4.24544e-10
4.25843e-10
4.30105e-10
4.34981e-10
4.31305e-10
4.28745e-10
4.3876e-10
4.26943e-10
4.29336e-10
4.20245e-10
4.22572e-10
4.13419e-10
2.0572e-10
2.38816e-10
1.91681e-10
1.87129e-10
2.13462e-10
2.02016e-10
1.9306e-10
1.98666e-10
2.03762e-10
2.05289e-10
2.07121e-10
2.11497e-10
2.15882e-10
2.20979e-10
2.27175e-10
2.32157e-10
2.37692e-10
2.44239e-10
2.51208e-10
2.57465e-10
2.65159e-10
2.73131e-10
2.8063e-10
2.87979e-10
2.96469e-10
3.04727e-10
3.12104e-10
3.18966e-10
3.26655e-10
3.34723e-10
3.42503e-10
3.50032e-10
3.57296e-10
3.64488e-10
3.71327e-10
3.78032e-10
3.84335e-10
3.90442e-10
3.96172e-10
4.01594e-10
4.06488e-10
4.11264e-10
4.15906e-10
4.20258e-10
4.22986e-10
4.24123e-10
4.28065e-10
4.33118e-10
4.29059e-10
4.2662e-10
4.36552e-10
4.22405e-10
4.28815e-10
4.2222e-10
4.08771e-10
4.07573e-10
2.1633e-10
2.45702e-10
2.01542e-10
1.95509e-10
2.19338e-10
2.08514e-10
1.99507e-10
2.04558e-10
2.08878e-10
2.10226e-10
2.12085e-10
2.15689e-10
2.19974e-10
2.24522e-10
2.29619e-10
2.3462e-10
2.40346e-10
2.46778e-10
2.5331e-10
2.59835e-10
2.66455e-10
2.73188e-10
2.78948e-10
2.84842e-10
2.922e-10
3.01203e-10
3.10682e-10
3.20384e-10
3.29467e-10
3.36762e-10
3.43089e-10
3.49551e-10
3.56303e-10
3.63453e-10
3.70266e-10
3.76258e-10
3.82802e-10
3.89056e-10
3.94885e-10
4.00399e-10
4.05368e-10
4.09873e-10
4.14344e-10
4.18395e-10
4.21378e-10
4.22951e-10
4.26759e-10
4.31732e-10
4.28172e-10
4.24804e-10
4.34807e-10
4.26341e-10
4.25037e-10
4.0173e-10
4.2445e-10
4.0609e-10
2.25176e-10
2.52417e-10
2.08144e-10
2.02178e-10
2.24789e-10
2.14119e-10
2.04777e-10
2.09301e-10
2.13139e-10
2.13731e-10
2.15069e-10
2.18245e-10
2.22476e-10
2.26416e-10
2.30446e-10
2.35706e-10
2.4166e-10
2.4737e-10
2.53359e-10
2.60066e-10
2.66903e-10
2.74313e-10
2.82403e-10
2.9145e-10
2.99531e-10
3.06255e-10
3.11012e-10
3.15705e-10
3.22348e-10
3.30874e-10
3.39434e-10
3.47538e-10
3.548e-10
3.6188e-10
3.69241e-10
3.75796e-10
3.82491e-10
3.88534e-10
3.9436e-10
4.00112e-10
4.05192e-10
4.09816e-10
4.14572e-10
4.18683e-10
4.21319e-10
4.23071e-10
4.26975e-10
4.31901e-10
4.27968e-10
4.25029e-10
4.35012e-10
4.19865e-10
4.28034e-10
4.25836e-10
4.05246e-10
4.02863e-10
2.31247e-10
2.57273e-10
2.13617e-10
2.07353e-10
2.29777e-10
2.18755e-10
2.08999e-10
2.13263e-10
2.16784e-10
2.16919e-10
2.1799e-10
2.21029e-10
2.24742e-10
2.28632e-10
2.32766e-10
2.37651e-10
2.42749e-10
2.47968e-10
2.53909e-10
2.60441e-10
2.67055e-10
2.74126e-10
2.82178e-10
2.90918e-10
2.98464e-10
3.04748e-10
3.10233e-10
3.15177e-10
3.21441e-10
3.29853e-10
3.38297e-10
3.46441e-10
3.541e-10
3.6114e-10
3.6823e-10
3.75633e-10
3.81963e-10
3.88037e-10
3.94066e-10
3.99702e-10
4.0477e-10
4.09558e-10
4.1467e-10
4.19339e-10
4.2208e-10
4.235e-10
4.27644e-10
4.32843e-10
4.29368e-10
4.24992e-10
4.33879e-10
4.31679e-10
4.30466e-10
3.84207e-10
4.31959e-10
4.06165e-10
2.35958e-10
2.67845e-10
2.18874e-10
2.10498e-10
2.33894e-10
2.22226e-10
2.12192e-10
2.16207e-10
2.19513e-10
2.19546e-10
2.20601e-10
2.23367e-10
2.26737e-10
2.30461e-10
2.34783e-10
2.39347e-10
2.44193e-10
2.49577e-10
2.55344e-10
2.61043e-10
2.67128e-10
2.73446e-10
2.78956e-10
2.84126e-10
2.90351e-10
2.98399e-10
3.08724e-10
3.18768e-10
3.27473e-10
3.3416e-10
3.3989e-10
3.46423e-10
3.54084e-10
3.61265e-10
3.67983e-10
3.74919e-10
3.81234e-10
3.87659e-10
3.94073e-10
3.99671e-10
4.04878e-10
4.0971e-10
4.14505e-10
4.1923e-10
4.22325e-10
4.24029e-10
4.2845e-10
4.34163e-10
4.3063e-10
4.2742e-10
4.37835e-10
4.24304e-10
4.31505e-10
4.31858e-10
4.13296e-10
4.06019e-10
2.38023e-10
2.65126e-10
2.19037e-10
2.12746e-10
2.37039e-10
2.24458e-10
2.14291e-10
2.18345e-10
2.21501e-10
2.21379e-10
2.21969e-10
2.2444e-10
2.27608e-10
2.31093e-10
2.34836e-10
2.39094e-10
2.43835e-10
2.4915e-10
2.54671e-10
2.60477e-10
2.6657e-10
2.73171e-10
2.79901e-10
2.87158e-10
2.94415e-10
3.0172e-10
3.08811e-10
3.15701e-10
3.22978e-10
3.30532e-10
3.37866e-10
3.45697e-10
3.53307e-10
3.60625e-10
3.67638e-10
3.74781e-10
3.81418e-10
3.87995e-10
3.94325e-10
4.00404e-10
4.05885e-10
4.11074e-10
4.16093e-10
4.20925e-10
4.24125e-10
4.26096e-10
4.30728e-10
4.36562e-10
4.33377e-10
4.29123e-10
4.39078e-10
4.39632e-10
4.34146e-10
3.83422e-10
4.48827e-10
4.14188e-10
2.39109e-10
2.69381e-10
2.23068e-10
2.14092e-10
2.3892e-10
2.26016e-10
2.15532e-10
2.19392e-10
2.22455e-10
2.22183e-10
2.22737e-10
2.25036e-10
2.28071e-10
2.31292e-10
2.34974e-10
2.39116e-10
2.43716e-10
2.48687e-10
2.54166e-10
2.59892e-10
2.65974e-10
2.72223e-10
2.78935e-10
2.85879e-10
2.93142e-10
3.00256e-10
3.07473e-10
3.14426e-10
3.2202e-10
3.29694e-10
3.37617e-10
3.4545e-10
3.53287e-10
3.60574e-10
3.68012e-10
3.75126e-10
3.82176e-10
3.88875e-10
3.95513e-10
4.01558e-10
4.07248e-10
4.12608e-10
4.18113e-10
4.23205e-10
4.26659e-10
4.28802e-10
4.33661e-10
4.39684e-10
4.3643e-10
4.3411e-10
4.46388e-10
4.31276e-10
4.39064e-10
4.48842e-10
4.19628e-10
4.17279e-10
2.38556e-10
2.63003e-10
2.22558e-10
2.12598e-10
2.39225e-10
2.26887e-10
2.16419e-10
2.20177e-10
2.23232e-10
2.23e-10
2.23422e-10
2.25572e-10
2.28512e-10
2.31782e-10
2.35395e-10
2.39517e-10
2.43898e-10
2.48779e-10
2.5395e-10
2.59486e-10
2.65279e-10
2.71536e-10
2.77906e-10
2.84551e-10
2.91453e-10
2.98765e-10
3.06152e-10
3.13764e-10
3.21503e-10
3.29491e-10
3.37216e-10
3.4506e-10
3.52814e-10
3.60387e-10
3.67936e-10
3.75335e-10
3.82498e-10
3.89431e-10
3.96202e-10
4.02532e-10
4.08487e-10
4.14035e-10
4.19632e-10
4.2483e-10
4.28664e-10
4.30964e-10
4.36234e-10
4.4248e-10
4.40207e-10
4.36802e-10
4.47235e-10
4.49794e-10
4.47005e-10
3.89807e-10
4.65186e-10
4.30428e-10
2.35784e-10
2.59281e-10
2.25964e-10
2.10855e-10
2.37995e-10
2.27436e-10
2.17575e-10
2.21415e-10
2.24557e-10
2.24299e-10
2.24561e-10
2.26764e-10
2.29721e-10
2.33015e-10
2.36274e-10
2.40012e-10
2.44316e-10
2.49309e-10
2.5428e-10
2.59844e-10
2.65434e-10
2.7186e-10
2.77729e-10
2.84535e-10
2.91065e-10
2.98805e-10
3.0589e-10
3.13795e-10
3.20779e-10
3.28808e-10
3.35741e-10
3.43713e-10
3.50698e-10
3.58804e-10
3.6591e-10
3.741e-10
3.80813e-10
3.88611e-10
3.94982e-10
4.02159e-10
4.07678e-10
4.13985e-10
4.19214e-10
4.25723e-10
4.2959e-10
4.33102e-10
4.38627e-10
4.46351e-10
4.43316e-10
4.4268e-10
4.56628e-10
4.41652e-10
4.54389e-10
4.74136e-10
4.38237e-10
4.36391e-10
2.31375e-10
2.50383e-10
2.26479e-10
2.08031e-10
2.36415e-10
2.2658e-10
2.16926e-10
2.20519e-10
2.23804e-10
2.23748e-10
2.24455e-10
2.26277e-10
2.29192e-10
2.31568e-10
2.35609e-10
2.38953e-10
2.43954e-10
2.47689e-10
2.5373e-10
2.5833e-10
2.64997e-10
2.70129e-10
2.77525e-10
2.83325e-10
2.91316e-10
2.97229e-10
3.05645e-10
3.11498e-10
3.20261e-10
3.26836e-10
3.35779e-10
3.42183e-10
3.51366e-10
3.57896e-10
3.67275e-10
3.73768e-10
3.82957e-10
3.89001e-10
3.97738e-10
4.03168e-10
4.112e-10
4.16237e-10
4.2362e-10
4.2878e-10
4.3428e-10
4.36536e-10
4.44156e-10
4.50434e-10
4.49405e-10
4.46985e-10
4.60638e-10
4.6966e-10
4.66218e-10
3.90347e-10
4.95627e-10
4.54197e-10
2.25532e-10
2.44241e-10
2.25917e-10
2.00066e-10
2.26334e-10
2.17169e-10
2.08029e-10
2.11741e-10
2.14519e-10
2.14509e-10
2.15018e-10
2.17243e-10
2.2017e-10
2.22465e-10
2.25304e-10
2.28099e-10
2.32986e-10
2.37334e-10
2.43132e-10
2.47928e-10
2.54773e-10
2.60314e-10
2.68321e-10
2.74126e-10
2.83351e-10
2.89831e-10
3.00234e-10
3.07095e-10
3.18454e-10
3.2573e-10
3.37203e-10
3.4478e-10
3.57128e-10
3.63341e-10
3.74388e-10
3.80662e-10
3.92045e-10
3.97819e-10
4.08427e-10
4.13752e-10
4.23956e-10
4.29445e-10
4.38578e-10
4.42868e-10
4.49104e-10
4.5057e-10
4.59188e-10
4.64698e-10
4.63593e-10
4.62194e-10
4.79112e-10
4.59217e-10
4.70167e-10
5.01584e-10
4.71619e-10
4.64865e-10
2.18738e-10
2.3872e-10
2.18141e-10
2.04499e-10
2.27872e-10
2.17552e-10
2.09247e-10
2.13974e-10
2.1448e-10
2.15208e-10
2.14198e-10
2.17917e-10
2.17385e-10
2.2326e-10
2.23345e-10
2.3172e-10
2.30859e-10
2.40451e-10
2.3996e-10
2.51932e-10
2.51234e-10
2.65082e-10
2.63791e-10
2.79399e-10
2.78254e-10
2.9568e-10
2.94368e-10
3.13064e-10
3.11601e-10
3.31242e-10
3.29294e-10
3.49899e-10
3.48074e-10
3.69273e-10
3.66525e-10
3.87424e-10
3.8399e-10
4.0423e-10
4.01084e-10
4.20292e-10
4.16102e-10
4.3322e-10
4.29906e-10
4.4695e-10
4.44855e-10
4.572e-10
4.54671e-10
4.68544e-10
4.61981e-10
4.68458e-10
4.73954e-10
4.82159e-10
4.92026e-10
4.35004e-10
5.05301e-10
4.84703e-10
2.12872e-10
2.39811e-10
2.06698e-10
2.13252e-10
2.40662e-10
2.30781e-10
2.26652e-10
2.32124e-10
2.3602e-10
2.35837e-10
2.37897e-10
2.3923e-10
2.44059e-10
2.4602e-10
2.51012e-10
2.52999e-10
2.59136e-10
2.60127e-10
2.67504e-10
2.68576e-10
2.77774e-10
2.79153e-10
2.88931e-10
2.90547e-10
3.00354e-10
3.01455e-10
3.10723e-10
3.11176e-10
3.21154e-10
3.2075e-10
3.28862e-10
3.2699e-10
3.3592e-10
3.37901e-10
3.51434e-10
3.55952e-10
3.69313e-10
3.73022e-10
3.8545e-10
3.90721e-10
4.02111e-10
4.04826e-10
4.1396e-10
4.16772e-10
4.24752e-10
4.27287e-10
4.38416e-10
4.46901e-10
4.49485e-10
4.51956e-10
4.75689e-10
4.66514e-10
4.63048e-10
5.19564e-10
4.76235e-10
4.94764e-10
2.06145e-10
2.18836e-10
1.76814e-10
1.88212e-10
2.15724e-10
2.0589e-10
2.01409e-10
2.06855e-10
2.13488e-10
2.12121e-10
2.14999e-10
2.13932e-10
2.20844e-10
2.174e-10
2.23657e-10
2.19364e-10
2.31424e-10
2.26675e-10
2.41686e-10
2.35693e-10
2.53631e-10
2.46596e-10
2.68083e-10
2.5998e-10
2.84488e-10
2.75484e-10
3.03579e-10
2.93437e-10
3.22232e-10
3.09229e-10
3.36389e-10
3.19568e-10
3.47603e-10
3.34863e-10
3.6989e-10
3.60922e-10
3.95882e-10
3.84022e-10
4.20731e-10
4.12597e-10
4.45816e-10
4.37162e-10
4.65583e-10
4.53615e-10
4.76005e-10
4.66512e-10
4.92535e-10
4.8592e-10
4.94734e-10
4.89578e-10
5.20834e-10
5.12797e-10
5.22107e-10
5.16113e-10
5.38434e-10
5.13626e-10
2.02652e-10
2.38607e-10
2.20021e-10
2.09275e-10
2.17736e-10
2.00479e-10
1.87845e-10
1.92328e-10
1.9022e-10
1.92795e-10
1.87997e-10
1.9527e-10
1.90945e-10
2.02711e-10
1.96416e-10
2.12571e-10
2.0485e-10
2.25811e-10
2.14341e-10
2.39622e-10
2.24211e-10
2.533e-10
2.35254e-10
2.71381e-10
2.51209e-10
2.89986e-10
2.67961e-10
3.10319e-10
2.87766e-10
3.38849e-10
3.23941e-10
3.87884e-10
3.75397e-10
4.29846e-10
3.9924e-10
4.42436e-10
4.10356e-10
4.52907e-10
4.23135e-10
4.52171e-10
4.19064e-10
4.58502e-10
4.38573e-10
4.74177e-10
4.55685e-10
4.85021e-10
4.70734e-10
4.93639e-10
4.75722e-10
4.91728e-10
4.90652e-10
4.83215e-10
4.80021e-10
4.93808e-10
5.14803e-10
5.23864e-10
1.93521e-10
1.88869e-10
2.14932e-10
1.97259e-10
2.12405e-10
2.17235e-10
2.20972e-10
2.22423e-10
2.23846e-10
2.23495e-10
2.27332e-10
2.27537e-10
2.31421e-10
2.32201e-10
2.39314e-10
2.39388e-10
2.45641e-10
2.45076e-10
2.53022e-10
2.53786e-10
2.65602e-10
2.67748e-10
2.79475e-10
2.8038e-10
2.92307e-10
2.92276e-10
3.07055e-10
3.0661e-10
3.20747e-10
3.18016e-10
3.27712e-10
3.18346e-10
3.27112e-10
3.25515e-10
3.43057e-10
3.46984e-10
3.67464e-10
3.73021e-10
3.90667e-10
3.99005e-10
4.18551e-10
4.23378e-10
4.34726e-10
4.37819e-10
4.48666e-10
4.52628e-10
4.63997e-10
4.70262e-10
4.75701e-10
4.84234e-10
5.06911e-10
5.0554e-10
5.05573e-10
4.99996e-10
5.76405e-10
5.44375e-10
1.91738e-10
1.94397e-10
1.98709e-10
1.97329e-10
1.9793e-10
1.96808e-10
1.96263e-10
1.96285e-10
1.97e-10
1.97697e-10
1.9922e-10
2.00473e-10
2.02661e-10
2.04384e-10
2.07506e-10
2.10134e-10
2.14688e-10
2.18488e-10
2.24258e-10
2.28682e-10
2.35428e-10
2.40805e-10
2.49087e-10
2.55842e-10
2.65531e-10
2.72908e-10
2.83721e-10
2.9255e-10
3.05645e-10
3.16038e-10
3.29286e-10
3.3944e-10
3.53916e-10
3.66775e-10
3.83528e-10
3.96323e-10
4.10598e-10
4.19453e-10
4.30802e-10
4.39105e-10
4.48526e-10
4.54867e-10
4.64597e-10
4.72188e-10
4.81084e-10
4.87235e-10
4.94621e-10
5.00111e-10
5.05415e-10
5.08703e-10
5.14296e-10
5.20161e-10
5.26843e-10
5.29615e-10
5.43526e-10
5.54062e-10
)
;

boundaryField
{
    top
    {
        type            zeroGradient;
    }
    bottom
    {
        type            zeroGradient;
    }
    rotatingWall
    {
        type            zeroGradient;
    }
    wall
    {
        type            zeroGradient;
    }
    frontAndBack
    {
        type            empty;
    }
}


// ************************************************************************* //
