/*--------------------------------*- C++ -*----------------------------------*\
| =========                 |                                                 |
| \\      /  F ield         | OpenFOAM: The Open Source CFD Toolbox           |
|  \\    /   O peration     | Version:  5.0                                   |
|   \\  /    A nd           | Web:      www.OpenFOAM.org                      |
|    \\/     M anipulation  |                                                 |
\*---------------------------------------------------------------------------*/
FoamFile
{
    version     2.0;
    format      ascii;
    class       volVectorField;
    location    "3";
    object      U;
}
// * * * * * * * * * * * * * * * * * * * * * * * * * * * * * * * * * * * * * //

dimensions      [0 1 -1 0 0 0 0];

internalField   nonuniform List<vector> 
25
(
(0.986276 0.00422365 6.14975e-23)
(0.985385 -7.57616e-06 -4.39737e-23)
(0.984007 1.69613e-06 -4.61724e-23)
(0.985873 5.92049e-05 -4.61322e-23)
(0.981194 -0.00205175 3.29813e-23)
(0.786148 0.00347633 -8.95568e-37)
(0.789623 -3.97319e-05 4.68478e-23)
(0.787758 3.18824e-05 5.35895e-26)
(0.789576 0.000249045 -3.73612e-23)
(0.786648 -0.00135348 -4.09475e-23)
(0.589211 -8.7421e-05 -2.58732e-23)
(0.592921 0.000195234 -2.95376e-26)
(0.5913 3.30834e-05 2.75384e-23)
(0.592747 3.51465e-05 -5.5749e-23)
(0.591119 0.000274307 -5.462e-23)
(0.39513 -0.00265941 -1.44185e-22)
(0.395006 0.000313419 3.13506e-23)
(0.394706 2.28973e-05 -4.12013e-23)
(0.39527 -9.55467e-05 -1.58891e-23)
(0.395296 0.00143894 -5.21575e-23)
(0.200824 -0.0113056 3.64523e-23)
(0.197126 4.40568e-05 1.57045e-23)
(0.19813 1.6244e-05 -4.94728e-23)
(0.197813 -2.83277e-06 -1.50658e-23)
(0.199138 0.00565553 3.40528e-23)
)
;

boundaryField
{
    top
    {
        type            fixedValue;
        value           uniform (0 0 0);
    }
    bottom
    {
        type            symmetryPlane;
    }
    inlet
    {
        type            pressureInletVelocity;
        value           nonuniform List<vector> 5((0.987142 -0 -0) (0.785401 -0 -0) (0.587912 -0 -0) (0.394959 -0 -0) (0.202756 -0 -0));
    }
    outlet
    {
        type            inletOutlet;
        inletValue      nonuniform 0();
        value           nonuniform 0();
    }
    frontAndBack
    {
        type            empty;
    }
    procBoundary0to1
    {
        type            processor;
        value           nonuniform List<vector> 5((0.985368 0.00241454 9.08006e-23) (0.789871 0.00554131 -3.46574e-23) (0.593506 0.00254876 4.81439e-23) (0.396744 -0.000590879 1.2299e-22) (0.199603 -0.0051668 7.95332e-25));
    }
}


// ************************************************************************* //
