/*--------------------------------*- C++ -*----------------------------------*\
| =========                 |                                                 |
| \\      /  F ield         | OpenFOAM: The Open Source CFD Toolbox           |
|  \\    /   O peration     | Version:  5.0                                   |
|   \\  /    A nd           | Web:      www.OpenFOAM.org                      |
|    \\/     M anipulation  |                                                 |
\*---------------------------------------------------------------------------*/
FoamFile
{
    version     2.0;
    format      ascii;
    class       volVectorField;
    location    "3";
    object      U;
}
// * * * * * * * * * * * * * * * * * * * * * * * * * * * * * * * * * * * * * //

dimensions      [0 1 -1 0 0 0 0];

internalField   nonuniform List<vector> 
25
(
(1 1.40762e-09 -5.59431e-30)
(1 2.89887e-09 -3.2324e-23)
(1 1.57107e-09 -3.2324e-23)
(1 -2.42918e-09 -3.23241e-23)
(1 -1.02553e-09 1.18959e-29)
(0.92 3.79676e-09 -7.11298e-37)
(0.92 8.36095e-09 2.79794e-23)
(0.92 1.05543e-09 6.90786e-29)
(0.92 -3.59722e-09 -2.79795e-23)
(0.92 -4.12885e-09 -2.79794e-23)
(0.76 5.29877e-09 -2.73702e-23)
(0.76 1.14329e-08 9.16694e-29)
(0.76 -7.68448e-09 2.79794e-23)
(0.76 -3.57068e-10 -5.59588e-23)
(0.76 -8.97056e-09 -5.59589e-23)
(0.52 5.31098e-09 5.48442e-23)
(0.52 1.01126e-08 2.79795e-23)
(0.52 -1.48639e-08 -5.59588e-23)
(0.52 8.83722e-10 -2.79795e-23)
(0.52 -1.07361e-08 5.59588e-23)
(0.2 2.17163e-09 3.93808e-23)
(0.2 3.84631e-09 1.99394e-23)
(0.2 -7.22036e-09 -5.98181e-23)
(0.2 4.46491e-10 -1.99394e-23)
(0.2 -4.60723e-09 3.98787e-23)
)
;

boundaryField
{
    top
    {
        type            fixedValue;
        value           uniform (0 0 0);
    }
    bottom
    {
        type            symmetryPlane;
    }
    inlet
    {
        type            pressureInletVelocity;
        value           nonuniform List<vector> 5((1 -0 -0) (0.92 -0 -0) (0.76 -0 -0) (0.52 -0 -0) (0.2 -0 -0));
    }
    outlet
    {
        type            inletOutlet;
        inletValue      nonuniform 0();
        value           nonuniform 0();
    }
    frontAndBack
    {
        type            empty;
    }
    procBoundary0to1
    {
        type            processor;
        value           nonuniform List<vector> 5((1 -3.44416e-09 6.46481e-23) (0.92 -1.11834e-08 -2.79794e-23) (0.76 -1.68233e-08 2.79793e-23) (0.52 -1.489e-08 5.59588e-23) (0.2 -5.56255e-09 3.98787e-23));
    }
}


// ************************************************************************* //
