/*--------------------------------*- C++ -*----------------------------------*\
| =========                 |                                                 |
| \\      /  F ield         | OpenFOAM: The Open Source CFD Toolbox           |
|  \\    /   O peration     | Version:  5.0                                   |
|   \\  /    A nd           | Web:      www.OpenFOAM.org                      |
|    \\/     M anipulation  |                                                 |
\*---------------------------------------------------------------------------*/
FoamFile
{
    version     2.0;
    format      ascii;
    class       volVectorField;
    location    "62";
    object      U;
}
// * * * * * * * * * * * * * * * * * * * * * * * * * * * * * * * * * * * * * //

dimensions      [0 1 -1 0 0 0 0];

internalField   nonuniform List<vector> 
1568
(
(-3.74607e-11 -6.71538e-10 0)
(-9.86689e-10 8.8215e-09 0)
(4.63327e-09 -4.25202e-09 0)
(2.00308e-08 -9.03568e-09 0)
(3.18663e-08 -7.25953e-09 0)
(4.28032e-08 -7.56473e-09 0)
(5.5988e-08 -8.3992e-09 0)
(6.97866e-08 -8.62964e-09 0)
(8.33619e-08 -8.5033e-09 0)
(9.67028e-08 -8.32102e-09 0)
(1.09739e-07 -8.10637e-09 0)
(1.22261e-07 -7.76714e-09 0)
(1.34058e-07 -7.27108e-09 0)
(1.44987e-07 -6.73854e-09 0)
(1.54979e-07 -6.21149e-09 0)
(1.63921e-07 -5.58376e-09 0)
(1.71671e-07 -4.75829e-09 0)
(1.78295e-07 -4.02541e-09 0)
(1.8385e-07 -3.379e-09 0)
(1.8829e-07 -2.71133e-09 0)
(1.9153e-07 -1.97693e-09 0)
(1.93624e-07 -1.2896e-09 0)
(1.94533e-07 -7.54841e-10 0)
(1.94344e-07 -3.69084e-10 0)
(1.93145e-07 1.5674e-10 0)
(1.90846e-07 7.41835e-10 0)
(1.87582e-07 1.37593e-09 0)
(1.83545e-07 1.86777e-09 0)
(1.78798e-07 2.36747e-09 0)
(1.73522e-07 2.75634e-09 0)
(1.67797e-07 3.19912e-09 0)
(1.61682e-07 3.55769e-09 0)
(1.55269e-07 3.96009e-09 0)
(1.48605e-07 4.30771e-09 0)
(1.41685e-07 4.66808e-09 0)
(1.34545e-07 4.83208e-09 0)
(1.2725e-07 5.02701e-09 0)
(1.19826e-07 5.11528e-09 0)
(1.12326e-07 5.22652e-09 0)
(1.04753e-07 5.27041e-09 0)
(9.7123e-08 5.35156e-09 0)
(8.94708e-08 5.36512e-09 0)
(8.18376e-08 5.41934e-09 0)
(7.42203e-08 5.45135e-09 0)
(6.66384e-08 5.50065e-09 0)
(5.91061e-08 5.46663e-09 0)
(5.16835e-08 5.39872e-09 0)
(4.44138e-08 5.29873e-09 0)
(3.72863e-08 5.22201e-09 0)
(3.03443e-08 5.01523e-09 0)
(2.37256e-08 4.70423e-09 0)
(1.7455e-08 4.41646e-09 0)
(1.21143e-08 4.11737e-09 0)
(6.66641e-09 4.11209e-09 0)
(2.535e-09 2.30123e-09 0)
(5.42293e-10 8.12302e-10 0)
(1.19895e-08 -6.58108e-09 0)
(-3.68337e-09 -1.53937e-08 0)
(1.12508e-08 -1.6104e-08 0)
(1.47002e-08 -1.5635e-08 0)
(2.60438e-08 -1.72612e-08 0)
(3.58116e-08 -1.85159e-08 0)
(4.65437e-08 -1.92482e-08 0)
(5.8248e-08 -1.94523e-08 0)
(6.98113e-08 -1.9324e-08 0)
(8.10685e-08 -1.89267e-08 0)
(9.20373e-08 -1.82238e-08 0)
(1.02632e-07 -1.72964e-08 0)
(1.1261e-07 -1.6177e-08 0)
(1.2182e-07 -1.48769e-08 0)
(1.30204e-07 -1.3391e-08 0)
(1.37685e-07 -1.17646e-08 0)
(1.44255e-07 -1.0116e-08 0)
(1.49873e-07 -8.56447e-09 0)
(1.54498e-07 -6.97156e-09 0)
(1.58106e-07 -5.32752e-09 0)
(1.60723e-07 -3.61901e-09 0)
(1.62362e-07 -1.91481e-09 0)
(1.63019e-07 -2.03566e-10 0)
(1.62705e-07 1.42939e-09 0)
(1.61505e-07 3.02316e-09 0)
(1.59443e-07 4.47488e-09 0)
(1.56626e-07 5.72078e-09 0)
(1.53144e-07 6.72282e-09 0)
(1.49093e-07 7.55327e-09 0)
(1.44556e-07 8.22429e-09 0)
(1.39593e-07 8.76942e-09 0)
(1.34298e-07 9.1663e-09 0)
(1.28763e-07 9.48456e-09 0)
(1.23023e-07 9.73902e-09 0)
(1.17096e-07 1.00129e-08 0)
(1.1101e-07 1.02246e-08 0)
(1.04816e-07 1.03885e-08 0)
(9.85606e-08 1.0486e-08 0)
(9.22302e-08 1.05647e-08 0)
(8.58875e-08 1.05945e-08 0)
(7.95267e-08 1.06051e-08 0)
(7.31396e-08 1.05675e-08 0)
(6.67593e-08 1.05135e-08 0)
(6.04508e-08 1.04096e-08 0)
(5.41882e-08 1.03034e-08 0)
(4.79983e-08 1.01783e-08 0)
(4.19002e-08 1.00319e-08 0)
(3.59381e-08 9.82916e-09 0)
(3.01368e-08 9.59212e-09 0)
(2.45026e-08 9.26854e-09 0)
(1.90155e-08 8.84243e-09 0)
(1.41258e-08 8.1529e-09 0)
(9.35999e-09 7.09638e-09 0)
(5.45396e-09 5.93207e-09 0)
(2.8398e-09 4.08448e-09 0)
(-2.67909e-10 2.30531e-09 0)
(4.43124e-09 -1.06201e-08 0)
(-2.66772e-09 -1.26369e-08 0)
(4.50957e-09 -2.37575e-08 0)
(1.35338e-08 -2.56657e-08 0)
(2.08595e-08 -2.77231e-08 0)
(2.80871e-08 -2.97638e-08 0)
(3.68651e-08 -3.07863e-08 0)
(4.64794e-08 -3.11613e-08 0)
(5.58697e-08 -3.0996e-08 0)
(6.50391e-08 -3.03527e-08 0)
(7.40017e-08 -2.9236e-08 0)
(8.26027e-08 -2.77375e-08 0)
(9.06998e-08 -2.59171e-08 0)
(9.81727e-08 -2.38281e-08 0)
(1.04949e-07 -2.15148e-08 0)
(1.11013e-07 -1.90235e-08 0)
(1.16311e-07 -1.642e-08 0)
(1.20782e-07 -1.38014e-08 0)
(1.24377e-07 -1.11453e-08 0)
(1.27113e-07 -8.47464e-09 0)
(1.2901e-07 -5.78742e-09 0)
(1.30108e-07 -3.14806e-09 0)
(1.30401e-07 -5.60252e-10 0)
(1.29923e-07 1.8862e-09 0)
(1.28731e-07 4.23696e-09 0)
(1.26911e-07 6.38021e-09 0)
(1.24508e-07 8.31148e-09 0)
(1.21568e-07 9.94696e-09 0)
(1.1814e-07 1.13994e-08 0)
(1.14309e-07 1.26034e-08 0)
(1.10144e-07 1.36899e-08 0)
(1.05699e-07 1.45671e-08 0)
(1.01036e-07 1.53375e-08 0)
(9.62083e-08 1.59187e-08 0)
(9.12617e-08 1.64256e-08 0)
(8.62434e-08 1.6755e-08 0)
(8.11778e-08 1.70342e-08 0)
(7.60762e-08 1.71711e-08 0)
(7.0983e-08 1.72669e-08 0)
(6.58962e-08 1.72595e-08 0)
(6.0822e-08 1.72281e-08 0)
(5.57831e-08 1.71252e-08 0)
(5.08028e-08 1.70329e-08 0)
(4.58779e-08 1.6901e-08 0)
(4.1021e-08 1.67695e-08 0)
(3.6217e-08 1.65822e-08 0)
(3.15237e-08 1.63528e-08 0)
(2.69797e-08 1.6041e-08 0)
(2.25184e-08 1.5667e-08 0)
(1.81745e-08 1.51171e-08 0)
(1.40461e-08 1.43363e-08 0)
(1.01772e-08 1.32799e-08 0)
(7.0348e-09 1.17606e-08 0)
(3.74987e-09 9.75872e-09 0)
(1.39976e-09 6.79339e-09 0)
(-1.59989e-11 3.30532e-09 0)
(-1.50747e-09 -8.07665e-09 0)
(9.31833e-10 -1.97091e-08 0)
(3.94244e-09 -2.58622e-08 0)
(1.00084e-08 -3.09611e-08 0)
(1.55534e-08 -3.51972e-08 0)
(2.08416e-08 -3.80164e-08 0)
(2.76994e-08 -3.9352e-08 0)
(3.51814e-08 -3.98812e-08 0)
(4.24896e-08 -3.97404e-08 0)
(4.95939e-08 -3.89014e-08 0)
(5.65405e-08 -3.74844e-08 0)
(6.32368e-08 -3.55485e-08 0)
(6.95063e-08 -3.32052e-08 0)
(7.52442e-08 -3.05177e-08 0)
(8.04469e-08 -2.75473e-08 0)
(8.50648e-08 -2.43486e-08 0)
(8.90398e-08 -2.10351e-08 0)
(9.23307e-08 -1.76386e-08 0)
(9.49151e-08 -1.42103e-08 0)
(9.67905e-08 -1.07408e-08 0)
(9.79905e-08 -7.2908e-09 0)
(9.85414e-08 -3.87503e-09 0)
(9.84674e-08 -5.83715e-10 0)
(9.77935e-08 2.58237e-09 0)
(9.65848e-08 5.54225e-09 0)
(9.49048e-08 8.29465e-09 0)
(9.27916e-08 1.07321e-08 0)
(9.0272e-08 1.28896e-08 0)
(8.73974e-08 1.47303e-08 0)
(8.42257e-08 1.63411e-08 0)
(8.07845e-08 1.7691e-08 0)
(7.7123e-08 1.88515e-08 0)
(7.33174e-08 1.97806e-08 0)
(6.94124e-08 2.05522e-08 0)
(6.54342e-08 2.11233e-08 0)
(6.14377e-08 2.15662e-08 0)
(5.74656e-08 2.18355e-08 0)
(5.35231e-08 2.20242e-08 0)
(4.96194e-08 2.20919e-08 0)
(4.57911e-08 2.20917e-08 0)
(4.20388e-08 2.2004e-08 0)
(3.83495e-08 2.18996e-08 0)
(3.47474e-08 2.17446e-08 0)
(3.12506e-08 2.15952e-08 0)
(2.78186e-08 2.13942e-08 0)
(2.44435e-08 2.11609e-08 0)
(2.11643e-08 2.08501e-08 0)
(1.80296e-08 2.0464e-08 0)
(1.49822e-08 1.99489e-08 0)
(1.19641e-08 1.92923e-08 0)
(9.0905e-09 1.83273e-08 0)
(6.65301e-09 1.70109e-08 0)
(4.22818e-09 1.50391e-08 0)
(2.42318e-09 1.23346e-08 0)
(9.68223e-10 8.47169e-09 0)
(2.69092e-10 4.09864e-09 0)
(-4.34064e-10 -6.93376e-09 0)
(1.53799e-09 -1.91443e-08 0)
(3.19278e-09 -2.80201e-08 0)
(6.65664e-09 -3.46762e-08 0)
(9.93391e-09 -4.02632e-08 0)
(1.3946e-08 -4.35763e-08 0)
(1.90759e-08 -4.5174e-08 0)
(2.44293e-08 -4.58484e-08 0)
(2.96526e-08 -4.57223e-08 0)
(3.48021e-08 -4.47877e-08 0)
(3.98293e-08 -4.31285e-08 0)
(4.46249e-08 -4.08853e-08 0)
(4.90725e-08 -3.81629e-08 0)
(5.31307e-08 -3.50297e-08 0)
(5.67656e-08 -3.15456e-08 0)
(5.99331e-08 -2.7827e-08 0)
(6.2601e-08 -2.3933e-08 0)
(6.47385e-08 -1.99454e-08 0)
(6.63199e-08 -1.58907e-08 0)
(6.73616e-08 -1.18293e-08 0)
(6.7881e-08 -7.78251e-09 0)
(6.79027e-08 -3.83008e-09 0)
(6.74515e-08 -2.07517e-12 0)
(6.65611e-08 3.62673e-09 0)
(6.5285e-08 7.0433e-09 0)
(6.36836e-08 1.0161e-08 0)
(6.17813e-08 1.29649e-08 0)
(5.96054e-08 1.54049e-08 0)
(5.71961e-08 1.75154e-08 0)
(5.45997e-08 1.92794e-08 0)
(5.18451e-08 2.07533e-08 0)
(4.89557e-08 2.19488e-08 0)
(4.59755e-08 2.29201e-08 0)
(4.29525e-08 2.36604e-08 0)
(3.99351e-08 2.42255e-08 0)
(3.69691e-08 2.46212e-08 0)
(3.40869e-08 2.48841e-08 0)
(3.12921e-08 2.5013e-08 0)
(2.85867e-08 2.50691e-08 0)
(2.59948e-08 2.50322e-08 0)
(2.35289e-08 2.49303e-08 0)
(2.11866e-08 2.47615e-08 0)
(1.89692e-08 2.45838e-08 0)
(1.68645e-08 2.43673e-08 0)
(1.48362e-08 2.41185e-08 0)
(1.28572e-08 2.38115e-08 0)
(1.09814e-08 2.34491e-08 0)
(9.24636e-09 2.30016e-08 0)
(7.54825e-09 2.24381e-08 0)
(5.93105e-09 2.16495e-08 0)
(4.48796e-09 2.0583e-08 0)
(3.05549e-09 1.91337e-08 0)
(2.15836e-09 1.69965e-08 0)
(9.47056e-10 1.3917e-08 0)
(1.38214e-10 9.45717e-09 0)
(-1.18226e-10 4.47439e-09 0)
(1.16573e-10 -8.12268e-09 0)
(9.5728e-10 -2.03233e-08 0)
(1.73377e-09 -3.02401e-08 0)
(3.2261e-09 -3.79518e-08 0)
(5.13043e-09 -4.36475e-08 0)
(7.86906e-09 -4.7031e-08 0)
(1.11326e-08 -4.8867e-08 0)
(1.43871e-08 -4.96867e-08 0)
(1.75784e-08 -4.95548e-08 0)
(2.08045e-08 -4.85255e-08 0)
(2.39327e-08 -4.67125e-08 0)
(2.68906e-08 -4.42481e-08 0)
(2.96004e-08 -4.12308e-08 0)
(3.20263e-08 -3.77417e-08 0)
(3.41375e-08 -3.38775e-08 0)
(3.58998e-08 -2.97274e-08 0)
(3.72912e-08 -2.53826e-08 0)
(3.82931e-08 -2.09203e-08 0)
(3.88963e-08 -1.64049e-08 0)
(3.91055e-08 -1.18862e-08 0)
(3.89419e-08 -7.43405e-09 0)
(3.84279e-08 -3.0975e-09 0)
(3.7594e-08 1.061e-09 0)
(3.64747e-08 5.00199e-09 0)
(3.51098e-08 8.66945e-09 0)
(3.35411e-08 1.20204e-08 0)
(3.18002e-08 1.49989e-08 0)
(2.99062e-08 1.76023e-08 0)
(2.78926e-08 1.98141e-08 0)
(2.57989e-08 2.16626e-08 0)
(2.36508e-08 2.31506e-08 0)
(2.14721e-08 2.43272e-08 0)
(1.93022e-08 2.52204e-08 0)
(1.71748e-08 2.58877e-08 0)
(1.51279e-08 2.6348e-08 0)
(1.31933e-08 2.66416e-08 0)
(1.13856e-08 2.67635e-08 0)
(9.71649e-09 2.67665e-08 0)
(8.1787e-09 2.66887e-08 0)
(6.81534e-09 2.65263e-08 0)
(5.61307e-09 2.62876e-08 0)
(4.56012e-09 2.60053e-08 0)
(3.64654e-09 2.56836e-08 0)
(2.88006e-09 2.53378e-08 0)
(2.2159e-09 2.497e-08 0)
(1.62587e-09 2.45796e-08 0)
(1.15846e-09 2.41459e-08 0)
(8.43271e-10 2.36489e-08 0)
(5.64145e-10 2.3025e-08 0)
(3.11196e-10 2.21636e-08 0)
(1.43027e-10 2.10102e-08 0)
(1.6304e-10 1.94641e-08 0)
(-1.3037e-10 1.72917e-08 0)
(-1.47442e-10 1.40191e-08 0)
(-4.84623e-11 9.67349e-09 0)
(-9.20788e-11 4.31169e-09 0)
(-2.10937e-10 -8.8252e-09 0)
(2.5303e-10 -2.12058e-08 0)
(3.83574e-10 -3.17906e-08 0)
(6.64182e-10 -3.96658e-08 0)
(1.2427e-09 -4.53449e-08 0)
(2.45028e-09 -4.89725e-08 0)
(3.78497e-09 -5.11303e-08 0)
(5.10033e-09 -5.21193e-08 0)
(6.37099e-09 -5.20074e-08 0)
(7.78026e-09 -5.09143e-08 0)
(9.09266e-09 -4.89677e-08 0)
(1.02984e-08 -4.63134e-08 0)
(1.13445e-08 -4.30616e-08 0)
(1.22093e-08 -3.9309e-08 0)
(1.28672e-08 -3.51553e-08 0)
(1.32906e-08 -3.06981e-08 0)
(1.34629e-08 -2.6029e-08 0)
(1.33772e-08 -2.1233e-08 0)
(1.30319e-08 -1.63861e-08 0)
(1.24359e-08 -1.1557e-08 0)
(1.16065e-08 -6.80964e-09 0)
(1.05732e-08 -2.20979e-09 0)
(9.36426e-09 2.18855e-09 0)
(8.00698e-09 6.32671e-09 0)
(6.5329e-09 1.01566e-08 0)
(4.97664e-09 1.36317e-08 0)
(3.36574e-09 1.67185e-08 0)
(1.72333e-09 1.93963e-08 0)
(7.77269e-11 2.1671e-08 0)
(-1.54328e-09 2.35493e-08 0)
(-3.12078e-09 2.5056e-08 0)
(-4.63075e-09 2.6219e-08 0)
(-6.03973e-09 2.70771e-08 0)
(-7.33312e-09 2.76551e-08 0)
(-8.47119e-09 2.79958e-08 0)
(-9.42704e-09 2.81438e-08 0)
(-1.02134e-08 2.81157e-08 0)
(-1.08558e-08 2.79429e-08 0)
(-1.12731e-08 2.76599e-08 0)
(-1.14523e-08 2.72884e-08 0)
(-1.14536e-08 2.68597e-08 0)
(-1.12708e-08 2.63943e-08 0)
(-1.09049e-08 2.59041e-08 0)
(-1.03693e-08 2.54017e-08 0)
(-9.7117e-09 2.49055e-08 0)
(-8.95265e-09 2.44072e-08 0)
(-8.05502e-09 2.38872e-08 0)
(-7.0111e-09 2.33149e-08 0)
(-5.96408e-09 2.26258e-08 0)
(-4.93835e-09 2.17278e-08 0)
(-3.82412e-09 2.05388e-08 0)
(-2.81735e-09 1.89485e-08 0)
(-1.73841e-09 1.66936e-08 0)
(-1.1076e-09 1.3643e-08 0)
(-6.94124e-10 9.2109e-09 0)
(3.25695e-11 4.12581e-09 0)
(-5.58824e-10 -8.633e-09 0)
(-1.71375e-10 -2.09566e-08 0)
(-7.5009e-10 -3.15025e-08 0)
(-1.53423e-09 -3.95049e-08 0)
(-2.25918e-09 -4.53607e-08 0)
(-2.5671e-09 -4.93219e-08 0)
(-2.92091e-09 -5.17256e-08 0)
(-3.42219e-09 -5.28062e-08 0)
(-3.83877e-09 -5.27142e-08 0)
(-4.16492e-09 -5.15927e-08 0)
(-4.5026e-09 -4.95708e-08 0)
(-4.92617e-09 -4.68023e-08 0)
(-5.43655e-09 -4.34017e-08 0)
(-6.03941e-09 -3.94814e-08 0)
(-6.75146e-09 -3.51508e-08 0)
(-7.58901e-09 -3.05095e-08 0)
(-8.55689e-09 -2.56518e-08 0)
(-9.65846e-09 -2.06646e-08 0)
(-1.08895e-08 -1.56318e-08 0)
(-1.2237e-08 -1.0627e-08 0)
(-1.36824e-08 -5.72157e-09 0)
(-1.52009e-08 -9.79525e-10 0)
(-1.67668e-08 3.52851e-09 0)
(-1.83565e-08 7.74827e-09 0)
(-1.99399e-08 1.1627e-08 0)
(-2.14884e-08 1.5128e-08 0)
(-2.29786e-08 1.82188e-08 0)
(-2.43895e-08 2.08856e-08 0)
(-2.56984e-08 2.31218e-08 0)
(-2.68821e-08 2.49384e-08 0)
(-2.79246e-08 2.63574e-08 0)
(-2.8812e-08 2.74166e-08 0)
(-2.95165e-08 2.81542e-08 0)
(-3.00269e-08 2.86032e-08 0)
(-3.03453e-08 2.87575e-08 0)
(-3.0446e-08 2.86944e-08 0)
(-3.02811e-08 2.8469e-08 0)
(-2.98965e-08 2.80928e-08 0)
(-2.92441e-08 2.75743e-08 0)
(-2.83539e-08 2.69869e-08 0)
(-2.72343e-08 2.63558e-08 0)
(-2.58921e-08 2.57027e-08 0)
(-2.43353e-08 2.50424e-08 0)
(-2.25859e-08 2.43934e-08 0)
(-2.06922e-08 2.37679e-08 0)
(-1.86831e-08 2.31602e-08 0)
(-1.65263e-08 2.25504e-08 0)
(-1.4226e-08 2.19094e-08 0)
(-1.19454e-08 2.11852e-08 0)
(-9.7438e-09 2.02992e-08 0)
(-7.51486e-09 1.91446e-08 0)
(-5.28572e-09 1.76022e-08 0)
(-3.53994e-09 1.5547e-08 0)
(-1.96813e-09 1.25251e-08 0)
(-8.79504e-10 8.57778e-09 0)
(8.22374e-11 3.81565e-09 0)
(-6.41004e-10 -8.0721e-09 0)
(-4.98326e-10 -2.00132e-08 0)
(-1.74074e-09 -3.02565e-08 0)
(-3.54941e-09 -3.8171e-08 0)
(-5.485e-09 -4.40662e-08 0)
(-7.13558e-09 -4.81397e-08 0)
(-8.96758e-09 -5.06171e-08 0)
(-1.1032e-08 -5.1712e-08 0)
(-1.29065e-08 -5.1624e-08 0)
(-1.48126e-08 -5.04891e-08 0)
(-1.66896e-08 -4.84491e-08 0)
(-1.85988e-08 -4.56426e-08 0)
(-2.05281e-08 -4.21891e-08 0)
(-2.2476e-08 -3.82063e-08 0)
(-2.44419e-08 -3.38058e-08 0)
(-2.64292e-08 -2.90902e-08 0)
(-2.84375e-08 -2.41582e-08 0)
(-3.04627e-08 -1.91034e-08 0)
(-3.24966e-08 -1.40108e-08 0)
(-3.45233e-08 -8.95904e-09 0)
(-3.65243e-08 -4.02581e-09 0)
(-3.84807e-08 7.18942e-10 0)
(-4.03702e-08 5.2086e-09 0)
(-4.21676e-08 9.38249e-09 0)
(-4.38479e-08 1.31914e-08 0)
(-4.5385e-08 1.65984e-08 0)
(-4.67605e-08 1.95794e-08 0)
(-4.79597e-08 2.21158e-08 0)
(-4.89644e-08 2.42008e-08 0)
(-4.97528e-08 2.58425e-08 0)
(-5.0312e-08 2.70682e-08 0)
(-5.0632e-08 2.79154e-08 0)
(-5.07222e-08 2.84247e-08 0)
(-5.05059e-08 2.86273e-08 0)
(-5.00163e-08 2.85534e-08 0)
(-4.93029e-08 2.82369e-08 0)
(-4.82904e-08 2.77453e-08 0)
(-4.69824e-08 2.71027e-08 0)
(-4.53844e-08 2.63414e-08 0)
(-4.35116e-08 2.55111e-08 0)
(-4.13727e-08 2.46475e-08 0)
(-3.8981e-08 2.37768e-08 0)
(-3.63488e-08 2.2921e-08 0)
(-3.35024e-08 2.20982e-08 0)
(-3.0494e-08 2.13223e-08 0)
(-2.73602e-08 2.05916e-08 0)
(-2.40748e-08 1.98919e-08 0)
(-2.06496e-08 1.9201e-08 0)
(-1.72651e-08 1.84768e-08 0)
(-1.39929e-08 1.76432e-08 0)
(-1.073e-08 1.66156e-08 0)
(-7.6538e-09 1.52688e-08 0)
(-4.88419e-09 1.33859e-08 0)
(-2.73972e-09 1.09535e-08 0)
(-1.29129e-09 7.34089e-09 0)
(1.70611e-11 3.32334e-09 0)
(-6.41953e-10 -7.42689e-09 0)
(-8.13041e-10 -1.86771e-08 0)
(-2.66242e-09 -2.84214e-08 0)
(-5.3141e-09 -3.59876e-08 0)
(-8.28468e-09 -4.16687e-08 0)
(-1.10857e-08 -4.56189e-08 0)
(-1.41758e-08 -4.80362e-08 0)
(-1.7536e-08 -4.91148e-08 0)
(-2.08417e-08 -4.9009e-08 0)
(-2.40918e-08 -4.78666e-08 0)
(-2.73267e-08 -4.58442e-08 0)
(-3.0552e-08 -4.30538e-08 0)
(-3.37399e-08 -3.9625e-08 0)
(-3.68743e-08 -3.56659e-08 0)
(-3.99447e-08 -3.12882e-08 0)
(-4.29466e-08 -2.65969e-08 0)
(-4.58717e-08 -2.16948e-08 0)
(-4.87096e-08 -1.6679e-08 0)
(-5.14451e-08 -1.16387e-08 0)
(-5.40651e-08 -6.65715e-09 0)
(-5.65526e-08 -1.81301e-09 0)
(-5.8886e-08 2.81873e-09 0)
(-6.10481e-08 7.1751e-09 0)
(-6.30207e-08 1.11913e-08 0)
(-6.47764e-08 1.4819e-08 0)
(-6.62903e-08 1.80261e-08 0)
(-6.75514e-08 2.07928e-08 0)
(-6.85534e-08 2.31032e-08 0)
(-6.92794e-08 2.49432e-08 0)
(-6.9706e-08 2.63208e-08 0)
(-6.98221e-08 2.72698e-08 0)
(-6.96272e-08 2.78369e-08 0)
(-6.91275e-08 2.8046e-08 0)
(-6.83008e-08 2.79307e-08 0)
(-6.71663e-08 2.75659e-08 0)
(-6.56993e-08 2.69671e-08 0)
(-6.39069e-08 2.61687e-08 0)
(-6.17872e-08 2.52204e-08 0)
(-5.93495e-08 2.41636e-08 0)
(-5.66065e-08 2.30484e-08 0)
(-5.35725e-08 2.19121e-08 0)
(-5.02634e-08 2.07872e-08 0)
(-4.66939e-08 1.97004e-08 0)
(-4.28929e-08 1.86751e-08 0)
(-3.89169e-08 1.77278e-08 0)
(-3.48094e-08 1.68632e-08 0)
(-3.05449e-08 1.60744e-08 0)
(-2.61414e-08 1.53457e-08 0)
(-2.18014e-08 1.46432e-08 0)
(-1.76102e-08 1.39087e-08 0)
(-1.34859e-08 1.30546e-08 0)
(-9.55869e-09 1.19764e-08 0)
(-6.17044e-09 1.0577e-08 0)
(-3.39391e-09 8.51147e-09 0)
(-1.48695e-09 5.87345e-09 0)
(1.82293e-13 2.61605e-09 0)
(-6.29679e-10 -6.70314e-09 0)
(-1.08007e-09 -1.69552e-08 0)
(-3.39597e-09 -2.59608e-08 0)
(-6.75905e-09 -3.29876e-08 0)
(-1.05872e-08 -3.82733e-08 0)
(-1.43542e-08 -4.19653e-08 0)
(-1.85115e-08 -4.42348e-08 0)
(-2.29928e-08 -4.52394e-08 0)
(-2.74739e-08 -4.51132e-08 0)
(-3.18977e-08 -4.39942e-08 0)
(-3.62876e-08 -4.20137e-08 0)
(-4.06324e-08 -3.92901e-08 0)
(-4.48933e-08 -3.59405e-08 0)
(-4.90349e-08 -3.20734e-08 0)
(-5.3041e-08 -2.77985e-08 0)
(-5.68987e-08 -2.32228e-08 0)
(-6.05958e-08 -1.84462e-08 0)
(-6.41154e-08 -1.35701e-08 0)
(-6.74401e-08 -8.68315e-09 0)
(-7.0552e-08 -3.87553e-09 0)
(-7.3436e-08 7.78195e-10 0)
(-7.60732e-08 5.2018e-09 0)
(-7.84509e-08 9.32946e-09 0)
(-8.05538e-08 1.30959e-08 0)
(-8.23532e-08 1.64545e-08 0)
(-8.38245e-08 1.93746e-08 0)
(-8.49622e-08 2.18471e-08 0)
(-8.57739e-08 2.38556e-08 0)
(-8.62479e-08 2.53796e-08 0)
(-8.63471e-08 2.64181e-08 0)
(-8.60627e-08 2.7025e-08 0)
(-8.54099e-08 2.72552e-08 0)
(-8.44054e-08 2.71335e-08 0)
(-8.30446e-08 2.66918e-08 0)
(-8.1323e-08 2.59788e-08 0)
(-7.92323e-08 2.50298e-08 0)
(-7.67796e-08 2.38883e-08 0)
(-7.39728e-08 2.26022e-08 0)
(-7.08239e-08 2.12206e-08 0)
(-6.73487e-08 1.97915e-08 0)
(-6.35651e-08 1.83581e-08 0)
(-5.94914e-08 1.69575e-08 0)
(-5.51435e-08 1.56229e-08 0)
(-5.05516e-08 1.43813e-08 0)
(-4.57767e-08 1.32543e-08 0)
(-4.08657e-08 1.22528e-08 0)
(-3.57987e-08 1.13787e-08 0)
(-3.06002e-08 1.06212e-08 0)
(-2.54767e-08 9.95794e-09 0)
(-2.05355e-08 9.3457e-09 0)
(-1.56983e-08 8.71867e-09 0)
(-1.11276e-08 8.00228e-09 0)
(-7.15849e-09 7.04193e-09 0)
(-3.89292e-09 5.84411e-09 0)
(-1.7136e-09 3.92109e-09 0)
(3.66442e-11 1.83357e-09 0)
(-6.38662e-10 -5.85114e-09 0)
(-1.29807e-09 -1.48839e-08 0)
(-3.9658e-09 -2.29175e-08 0)
(-7.87452e-09 -2.92489e-08 0)
(-1.23794e-08 -3.4019e-08 0)
(-1.69311e-08 -3.737e-08 0)
(-2.19531e-08 -3.94337e-08 0)
(-2.73493e-08 -4.03292e-08 0)
(-3.27736e-08 -4.01755e-08 0)
(-3.81398e-08 -3.90844e-08 0)
(-4.34657e-08 -3.71692e-08 0)
(-4.87196e-08 -3.45483e-08 0)
(-5.38429e-08 -3.13248e-08 0)
(-5.87956e-08 -2.76093e-08 0)
(-6.35539e-08 -2.35074e-08 0)
(-6.80959e-08 -1.91237e-08 0)
(-7.24044e-08 -1.45597e-08 0)
(-7.64595e-08 -9.91206e-09 0)
(-8.02401e-08 -5.27288e-09 0)
(-8.37284e-08 -7.25966e-10 0)
(-8.69065e-08 3.64511e-09 0)
(-8.97599e-08 7.7726e-09 0)
(-9.22806e-08 1.15857e-08 0)
(-9.44578e-08 1.50243e-08 0)
(-9.62628e-08 1.80395e-08 0)
(-9.76659e-08 2.06124e-08 0)
(-9.8668e-08 2.27372e-08 0)
(-9.92957e-08 2.44051e-08 0)
(-9.95433e-08 2.5557e-08 0)
(-9.93359e-08 2.61835e-08 0)
(-9.86951e-08 2.63862e-08 0)
(-9.76472e-08 2.62424e-08 0)
(-9.622e-08 2.57508e-08 0)
(-9.44068e-08 2.49367e-08 0)
(-9.21988e-08 2.38445e-08 0)
(-8.95982e-08 2.25192e-08 0)
(-8.66142e-08 2.10096e-08 0)
(-8.32567e-08 1.93666e-08 0)
(-7.95419e-08 1.76408e-08 0)
(-7.54882e-08 1.58839e-08 0)
(-7.11164e-08 1.41421e-08 0)
(-6.64467e-08 1.2458e-08 0)
(-6.14967e-08 1.08693e-08 0)
(-5.62989e-08 9.40786e-09 0)
(-5.09153e-08 8.09927e-09 0)
(-4.53964e-08 6.96211e-09 0)
(-3.97245e-08 6.0045e-09 0)
(-3.39263e-08 5.22894e-09 0)
(-2.82205e-08 4.62485e-09 0)
(-2.27179e-08 4.16384e-09 0)
(-1.73477e-08 3.79782e-09 0)
(-1.23078e-08 3.47796e-09 0)
(-7.83572e-09 3.17217e-09 0)
(-4.31347e-09 2.60678e-09 0)
(-1.92318e-09 1.91819e-09 0)
(1.57428e-11 9.30284e-10 0)
(-6.21039e-10 -4.87132e-09 0)
(-1.47468e-09 -1.25647e-08 0)
(-4.3621e-09 -1.94435e-08 0)
(-8.68365e-09 -2.49334e-08 0)
(-1.36839e-08 -2.91e-08 0)
(-1.88219e-08 -3.20424e-08 0)
(-2.4488e-08 -3.38498e-08 0)
(-3.05659e-08 -3.46054e-08 0)
(-3.66948e-08 -3.44041e-08 0)
(-4.27686e-08 -3.3342e-08 0)
(-4.87922e-08 -3.15162e-08 0)
(-5.4721e-08 -2.90263e-08 0)
(-6.0488e-08 -2.5973e-08 0)
(-6.60437e-08 -2.24602e-08 0)
(-7.13541e-08 -1.85902e-08 0)
(-7.63953e-08 -1.44629e-08 0)
(-8.11445e-08 -1.01791e-08 0)
(-8.55773e-08 -5.83154e-09 0)
(-8.96704e-08 -1.51229e-09 0)
(-9.34075e-08 2.69469e-09 0)
(-9.67712e-08 6.709e-09 0)
(-9.97454e-08 1.04616e-08 0)
(-1.02326e-07 1.38896e-08 0)
(-1.04504e-07 1.693e-08 0)
(-1.06254e-07 1.95436e-08 0)
(-1.07546e-07 2.17126e-08 0)
(-1.08389e-07 2.34493e-08 0)
(-1.08845e-07 2.47475e-08 0)
(-1.08869e-07 2.55001e-08 0)
(-1.08411e-07 2.56898e-08 0)
(-1.07457e-07 2.5435e-08 0)
(-1.06084e-07 2.48733e-08 0)
(-1.04322e-07 2.39782e-08 0)
(-1.0215e-07 2.27587e-08 0)
(-9.95645e-08 2.12635e-08 0)
(-9.6571e-08 1.95405e-08 0)
(-9.31838e-08 1.76488e-08 0)
(-8.94187e-08 1.56376e-08 0)
(-8.52925e-08 1.35617e-08 0)
(-8.0825e-08 1.14729e-08 0)
(-7.60397e-08 9.42157e-09 0)
(-7.09578e-08 7.45274e-09 0)
(-6.55982e-08 5.60917e-09 0)
(-5.99941e-08 3.92716e-09 0)
(-5.42087e-08 2.43861e-09 0)
(-4.82937e-08 1.16881e-09 0)
(-4.22313e-08 1.3558e-10 0)
(-3.60491e-08 -6.48645e-10 0)
(-2.99685e-08 -1.17901e-09 0)
(-2.41164e-08 -1.46787e-09 0)
(-1.84165e-08 -1.53614e-09 0)
(-1.29955e-08 -1.40778e-09 0)
(-8.39249e-09 -1.12988e-09 0)
(-4.52008e-09 -6.85066e-10 0)
(-1.98009e-09 -4.04605e-10 0)
(1.19062e-10 3.22413e-12 0)
(-6.06153e-10 -3.84179e-09 0)
(-1.58796e-09 -1.00979e-08 0)
(-4.61938e-09 -1.5705e-08 0)
(-9.18826e-09 -2.0243e-08 0)
(-1.4508e-08 -2.3731e-08 0)
(-2.00247e-08 -2.6206e-08 0)
(-2.61069e-08 -2.77123e-08 0)
(-3.26261e-08 -2.83031e-08 0)
(-3.92138e-08 -2.80448e-08 0)
(-4.57503e-08 -2.70135e-08 0)
(-5.22278e-08 -2.52894e-08 0)
(-5.8593e-08 -2.2958e-08 0)
(-6.47715e-08 -2.0112e-08 0)
(-7.07084e-08 -1.68441e-08 0)
(-7.6364e-08 -1.32525e-08 0)
(-8.1708e-08 -9.43363e-09 0)
(-8.67146e-08 -5.48096e-09 0)
(-9.13578e-08 -1.48569e-09 0)
(-9.56153e-08 2.46258e-09 0)
(-9.94695e-08 6.27929e-09 0)
(-1.02903e-07 9.89106e-09 0)
(-1.05901e-07 1.32324e-08 0)
(-1.08446e-07 1.62624e-08 0)
(-1.10535e-07 1.89083e-08 0)
(-1.12162e-07 2.10905e-08 0)
(-1.13304e-07 2.27817e-08 0)
(-1.13971e-07 2.40362e-08 0)
(-1.14214e-07 2.49091e-08 0)
(-1.14021e-07 2.51611e-08 0)
(-1.13348e-07 2.47239e-08 0)
(-1.12179e-07 2.40027e-08 0)
(-1.10591e-07 2.31402e-08 0)
(-1.08568e-07 2.18721e-08 0)
(-1.06118e-07 2.02441e-08 0)
(-1.03254e-07 1.83399e-08 0)
(-9.99859e-08 1.62231e-08 0)
(-9.63292e-08 1.39477e-08 0)
(-9.23038e-08 1.15723e-08 0)
(-8.79262e-08 9.14995e-09 0)
(-8.32183e-08 6.73597e-09 0)
(-7.82038e-08 4.38159e-09 0)
(-7.29044e-08 2.13575e-09 0)
(-6.73386e-08 4.34242e-11 0)
(-6.15397e-08 -1.85231e-09 0)
(-5.55697e-08 -3.51493e-09 0)
(-4.94803e-08 -4.91127e-09 0)
(-4.32524e-08 -6.01335e-09 0)
(-3.69108e-08 -6.79788e-09 0)
(-3.06829e-08 -7.24541e-09 0)
(-2.46882e-08 -7.34516e-09 0)
(-1.88502e-08 -7.10342e-09 0)
(-1.3374e-08 -6.5107e-09 0)
(-8.43679e-09 -5.50761e-09 0)
(-4.68508e-09 -4.30396e-09 0)
(-2.17416e-09 -2.69425e-09 0)
(6.60007e-11 -9.93733e-10 0)
(-6.04983e-10 -2.7932e-09 0)
(-1.62216e-09 -7.54615e-09 0)
(-4.71026e-09 -1.18238e-08 0)
(-9.39339e-09 -1.53552e-08 0)
(-1.48561e-08 -1.81155e-08 0)
(-2.05404e-08 -2.00842e-08 0)
(-2.68108e-08 -2.12611e-08 0)
(-3.35331e-08 -2.16704e-08 0)
(-4.03322e-08 -2.135e-08 0)
(-4.70813e-08 -2.03521e-08 0)
(-5.37646e-08 -1.87399e-08 0)
(-6.03246e-08 -1.65853e-08 0)
(-6.66804e-08 -1.397e-08 0)
(-7.27715e-08 -1.09792e-08 0)
(-7.85565e-08 -7.70066e-09 0)
(-8.40004e-08 -4.226e-09 0)
(-8.90737e-08 -6.43151e-10 0)
(-9.37517e-08 2.96013e-09 0)
(-9.8013e-08 6.49876e-09 0)
(-1.01839e-07 9.89304e-09 0)
(-1.05213e-07 1.30732e-08 0)
(-1.08121e-07 1.59745e-08 0)
(-1.10546e-07 1.8541e-08 0)
(-1.1248e-07 2.07109e-08 0)
(-1.13925e-07 2.24071e-08 0)
(-1.14884e-07 2.35399e-08 0)
(-1.15404e-07 2.42758e-08 0)
(-1.15432e-07 2.47344e-08 0)
(-1.14972e-07 2.4577e-08 0)
(-1.14092e-07 2.37608e-08 0)
(-1.12798e-07 2.26509e-08 0)
(-1.11046e-07 2.12701e-08 0)
(-1.08832e-07 1.95429e-08 0)
(-1.06197e-07 1.75002e-08 0)
(-1.03162e-07 1.51992e-08 0)
(-9.97431e-08 1.26998e-08 0)
(-9.59567e-08 1.00579e-08 0)
(-9.18218e-08 7.33263e-09 0)
(-8.73587e-08 4.57999e-09 0)
(-8.2587e-08 1.85598e-09 0)
(-7.75324e-08 -7.8418e-10 0)
(-7.22156e-08 -3.29054e-09 0)
(-6.6653e-08 -5.61486e-09 0)
(-6.08761e-08 -7.71024e-09 0)
(-5.49466e-08 -9.53344e-09 0)
(-4.89118e-08 -1.10456e-08 0)
(-4.27499e-08 -1.2209e-08 0)
(-3.64824e-08 -1.29876e-08 0)
(-3.03275e-08 -1.33469e-08 0)
(-2.4422e-08 -1.32595e-08 0)
(-1.86739e-08 -1.26999e-08 0)
(-1.31269e-08 -1.1625e-08 0)
(-8.52107e-09 -1.00198e-08 0)
(-4.60412e-09 -7.79572e-09 0)
(-2.03288e-09 -5.12126e-09 0)
(1.66434e-10 -1.98703e-09 0)
(-6.46117e-10 -1.7188e-09 0)
(-1.57761e-09 -4.96966e-09 0)
(-4.67899e-09 -7.9057e-09 0)
(-9.30647e-09 -1.04233e-08 0)
(-1.47339e-08 -1.24454e-08 0)
(-2.03804e-08 -1.38961e-08 0)
(-2.66142e-08 -1.47339e-08 0)
(-3.33035e-08 -1.49545e-08 0)
(-4.00693e-08 -1.45682e-08 0)
(-4.67831e-08 -1.36051e-08 0)
(-5.34263e-08 -1.21109e-08 0)
(-5.99387e-08 -1.01437e-08 0)
(-6.62376e-08 -7.77244e-09 0)
(-7.22584e-08 -5.07482e-09 0)
(-7.79565e-08 -2.13078e-09 0)
(-8.32962e-08 9.77087e-10 0)
(-8.82466e-08 4.16426e-09 0)
(-9.27832e-08 7.34761e-09 0)
(-9.68843e-08 1.04479e-08 0)
(-1.00531e-07 1.33913e-08 0)
(-1.03708e-07 1.61077e-08 0)
(-1.06407e-07 1.85354e-08 0)
(-1.08618e-07 2.06174e-08 0)
(-1.10336e-07 2.22959e-08 0)
(-1.11568e-07 2.35137e-08 0)
(-1.12332e-07 2.4244e-08 0)
(-1.12661e-07 2.45335e-08 0)
(-1.12493e-07 2.43523e-08 0)
(-1.11814e-07 2.37041e-08 0)
(-1.10732e-07 2.2565e-08 0)
(-1.09267e-07 2.10528e-08 0)
(-1.0738e-07 1.92287e-08 0)
(-1.05066e-07 1.70806e-08 0)
(-1.02353e-07 1.46421e-08 0)
(-9.92649e-08 1.19659e-08 0)
(-9.5822e-08 9.1068e-09 0)
(-9.20448e-08 6.1248e-09 0)
(-8.79547e-08 3.07609e-09 0)
(-8.35708e-08 2.0169e-11 0)
(-7.89131e-08 -2.98523e-09 0)
(-7.40062e-08 -5.88554e-09 0)
(-6.88718e-08 -8.62718e-09 0)
(-6.35226e-08 -1.11587e-08 0)
(-5.79865e-08 -1.34316e-08 0)
(-5.2322e-08 -1.5397e-08 0)
(-4.65733e-08 -1.70087e-08 0)
(-4.07105e-08 -1.8221e-08 0)
(-3.47475e-08 -1.89867e-08 0)
(-2.89056e-08 -1.9258e-08 0)
(-2.32983e-08 -1.89879e-08 0)
(-1.78176e-08 -1.81264e-08 0)
(-1.26629e-08 -1.66036e-08 0)
(-7.94856e-09 -1.43238e-08 0)
(-4.48625e-09 -1.1336e-08 0)
(-2.18886e-09 -7.38493e-09 0)
(1.26489e-10 -2.97149e-09 0)
(-6.19146e-10 -6.6367e-10 0)
(-1.50364e-09 -2.45141e-09 0)
(-4.47417e-09 -4.08098e-09 0)
(-8.94044e-09 -5.61796e-09 0)
(-1.41629e-08 -6.91636e-09 0)
(-1.95673e-08 -7.85784e-09 0)
(-2.55444e-08 -8.36414e-09 0)
(-3.19698e-08 -8.39877e-09 0)
(-3.84646e-08 -7.94837e-09 0)
(-4.4903e-08 -7.02272e-09 0)
(-5.12668e-08 -5.65064e-09 0)
(-5.7496e-08 -3.87642e-09 0)
(-6.35086e-08 -1.75797e-09 0)
(-6.92393e-08 6.37917e-10 0)
(-7.46409e-08 3.23861e-09 0)
(-7.96776e-08 5.96778e-09 0)
(-8.43203e-08 8.74732e-09 0)
(-8.85434e-08 1.14996e-08 0)
(-9.23253e-08 1.4151e-08 0)
(-9.56512e-08 1.66304e-08 0)
(-9.85099e-08 1.88701e-08 0)
(-1.00892e-07 2.0809e-08 0)
(-1.02792e-07 2.2395e-08 0)
(-1.04218e-07 2.35807e-08 0)
(-1.05179e-07 2.43262e-08 0)
(-1.05693e-07 2.46157e-08 0)
(-1.05762e-07 2.44673e-08 0)
(-1.05366e-07 2.38644e-08 0)
(-1.04526e-07 2.27928e-08 0)
(-1.0329e-07 2.12617e-08 0)
(-1.01692e-07 1.93517e-08 0)
(-9.97203e-08 1.71155e-08 0)
(-9.7371e-08 1.45774e-08 0)
(-9.46635e-08 1.17745e-08 0)
(-9.16262e-08 8.75669e-09 0)
(-8.82804e-08 5.57696e-09 0)
(-8.46484e-08 2.29369e-09 0)
(-8.07515e-08 -1.03577e-09 0)
(-7.66074e-08 -4.35212e-09 0)
(-7.22373e-08 -7.59849e-09 0)
(-6.76653e-08 -1.07201e-08 0)
(-6.29076e-08 -1.36611e-08 0)
(-5.79764e-08 -1.63676e-08 0)
(-5.28953e-08 -1.87883e-08 0)
(-4.77167e-08 -2.08712e-08 0)
(-4.24784e-08 -2.25632e-08 0)
(-3.71436e-08 -2.38108e-08 0)
(-3.17182e-08 -2.45573e-08 0)
(-2.64075e-08 -2.47453e-08 0)
(-2.13316e-08 -2.4312e-08 0)
(-1.63626e-08 -2.3174e-08 0)
(-1.14839e-08 -2.1235e-08 0)
(-7.53779e-09 -1.84173e-08 0)
(-4.09618e-09 -1.45231e-08 0)
(-1.85422e-09 -9.60719e-09 0)
(2.47596e-10 -3.86888e-09 0)
(-6.29162e-10 3.20192e-10 0)
(-1.3696e-09 -6.50728e-11 0)
(-4.16087e-09 -4.84643e-10 0)
(-8.3058e-09 -1.1007e-09 0)
(-1.31503e-08 -1.7111e-09 0)
(-1.81273e-08 -2.17565e-09 0)
(-2.36413e-08 -2.37302e-09 0)
(-2.95831e-08 -2.23612e-09 0)
(-3.5582e-08 -1.72951e-09 0)
(-4.15172e-08 -8.45905e-10 0)
(-4.73747e-08 4.01427e-10 0)
(-5.30981e-08 1.98022e-09 0)
(-5.86068e-08 3.84423e-09 0)
(-6.38356e-08 5.93692e-09 0)
(-6.87397e-08 8.19364e-09 0)
(-7.32839e-08 1.05446e-08 0)
(-7.74394e-08 1.2917e-08 0)
(-8.11819e-08 1.52416e-08 0)
(-8.44926e-08 1.74489e-08 0)
(-8.73598e-08 1.94727e-08 0)
(-8.97759e-08 2.12494e-08 0)
(-9.17368e-08 2.27239e-08 0)
(-9.32384e-08 2.38434e-08 0)
(-9.4291e-08 2.45672e-08 0)
(-9.49051e-08 2.48709e-08 0)
(-9.5107e-08 2.47378e-08 0)
(-9.48943e-08 2.41674e-08 0)
(-9.42743e-08 2.31517e-08 0)
(-9.32692e-08 2.16907e-08 0)
(-9.19091e-08 1.98036e-08 0)
(-9.02206e-08 1.75435e-08 0)
(-8.82112e-08 1.49624e-08 0)
(-8.58873e-08 1.20968e-08 0)
(-8.32691e-08 8.9879e-09 0)
(-8.03817e-08 5.68329e-09 0)
(-7.7247e-08 2.23888e-09 0)
(-7.38868e-08 -1.28981e-09 0)
(-7.03232e-08 -4.84333e-09 0)
(-6.65741e-08 -8.36513e-09 0)
(-6.26595e-08 -1.17992e-08 0)
(-5.85988e-08 -1.509e-08 0)
(-5.44064e-08 -1.8182e-08 0)
(-5.00897e-08 -2.10208e-08 0)
(-4.56683e-08 -2.35527e-08 0)
(-4.11871e-08 -2.57223e-08 0)
(-3.66762e-08 -2.74723e-08 0)
(-3.20884e-08 -2.87412e-08 0)
(-2.74192e-08 -2.9466e-08 0)
(-2.28748e-08 -2.95802e-08 0)
(-1.85265e-08 -2.90046e-08 0)
(-1.42265e-08 -2.76392e-08 0)
(-1.01663e-08 -2.53597e-08 0)
(-6.34396e-09 -2.2002e-08 0)
(-3.68883e-09 -1.75067e-08 0)
(-1.91085e-09 -1.15204e-08 0)
(1.40578e-10 -4.7291e-09 0)
(-5.90328e-10 1.22535e-09 0)
(-1.21414e-09 2.08897e-09 0)