/*--------------------------------*- C++ -*----------------------------------*\
| =========                 |                                                 |
| \\      /  F ield         | OpenFOAM: The Open Source CFD Toolbox           |
|  \\    /   O peration     | Version:  5.0                                   |
|   \\  /    A nd           | Web:      www.OpenFOAM.org                      |
|    \\/     M anipulation  |                                                 |
\*---------------------------------------------------------------------------*/
FoamFile
{
    version     2.0;
    format      ascii;
    class       surfaceScalarField;
    location    "2.6";
    object      phi;
}
// * * * * * * * * * * * * * * * * * * * * * * * * * * * * * * * * * * * * * //

dimensions      [0 3 -1 0 0 0 0];

internalField   nonuniform List<scalar> 
85
(
0.000196879
5.49798e-07
0.000197002
-1.23459e-07
0.000196983
1.95006e-08
0.000196711
2.71297e-07
0.000196641
7.02475e-08
0.000192356
4.28482e-06
0.00018793
4.42602e-06
0.000187254
6.7647e-07
0.000186887
3.6693e-07
3.00881e-07
0.000157826
-1.95952e-07
0.000157692
1.02437e-08
0.00015768
3.18456e-08
0.000157779
1.72589e-07
0.000157431
4.17702e-07
0.000158711
3.00495e-06
0.000159521
3.6161e-06
0.00015956
6.3789e-07
0.000159656
2.70214e-07
9.80139e-07
0.000118599
-1.21248e-06
0.00011835
2.59257e-07
0.00011835
3.14878e-08
0.000118556
-3.34401e-08
0.000118222
7.52261e-07
0.000120553
6.73587e-07
0.000122444
1.72494e-06
0.000122798
2.83717e-07
0.000123167
-9.8509e-08
1.61504e-06
7.90633e-05
-1.2839e-06
7.89633e-05
3.59212e-07
7.89822e-05
1.25448e-08
7.90885e-05
-1.39644e-07
7.91651e-05
6.75654e-07
8.0192e-05
-3.53396e-07
8.13263e-05
5.90685e-07
8.15673e-05
4.2703e-08
8.18053e-05
-3.36569e-07
1.40449e-06
3.92674e-05
3.96266e-05
3.96392e-05
3.94995e-05
4.01752e-05
3.98218e-05
4.04125e-05
4.04551e-05
4.01186e-05
)
;

boundaryField
{
    top
    {
        type            calculated;
        value           uniform 0;
    }
    bottom
    {
        type            symmetryPlane;
        value           uniform 0;
    }
    inlet
    {
        type            calculated;
        value           nonuniform List<scalar> 5(-0.000197428 -0.00015708 -0.000117582 -7.89918e-05 -4.05513e-05);
    }
    outlet
    {
        type            calculated;
        value           nonuniform List<scalar> 5(0.000186586 0.000158977 0.000122532 8.20158e-05 4.1523e-05);
    }
    frontAndBack
    {
        type            empty;
        value           nonuniform 0();
    }
}


// ************************************************************************* //
