/*--------------------------------*- C++ -*----------------------------------*\
| =========                 |                                                 |
| \\      /  F ield         | OpenFOAM: The Open Source CFD Toolbox           |
|  \\    /   O peration     | Version:  5.0                                   |
|   \\  /    A nd           | Web:      www.OpenFOAM.org                      |
|    \\/     M anipulation  |                                                 |
\*---------------------------------------------------------------------------*/
FoamFile
{
    version     2.0;
    format      ascii;
    class       surfaceScalarField;
    location    "0.9";
    object      phi;
}
// * * * * * * * * * * * * * * * * * * * * * * * * * * * * * * * * * * * * * //

dimensions      [0 3 -1 0 0 0 0];

internalField   nonuniform List<scalar> 
760
(
1.65492e-13
2.03101e-16
1.65256e-13
2.36642e-16
1.65201e-13
5.48192e-17
1.65182e-13
1.88749e-17
1.65179e-13
2.77296e-18
1.65178e-13
9.26894e-19
1.65178e-13
-8.53152e-20
1.65178e-13
1.14885e-19
1.65178e-13
-1.29269e-19
1.65178e-13
4.24562e-20
1.65178e-13
3.94677e-20
1.65178e-13
7.42806e-20
1.65178e-13
-2.02949e-20
1.65178e-13
2.73602e-20
1.65178e-13
-1.53539e-20
1.65178e-13
7.03225e-21
1.65178e-13
-2.122e-20
1.65178e-13
1.96779e-20
1.65178e-13
-1.54199e-21
8.6027e-21
1.64484e-13
4.03681e-16
1.64255e-13
4.653e-16
1.64204e-13
1.06219e-16
1.64184e-13
3.80487e-17
1.64182e-13
4.73171e-18
1.64181e-13
2.35271e-18
1.64181e-13
-5.78046e-19
1.64181e-13
4.52247e-19
1.64181e-13
-4.64106e-19
1.64181e-13
2.54681e-19
1.64181e-13
-7.15041e-20
1.64181e-13
2.55358e-19
1.64181e-13
-5.13e-20
1.64181e-13
9.22058e-20
1.64181e-13
-2.69191e-20
1.64181e-13
6.53694e-20
1.64181e-13
-5.88911e-20
1.64181e-13
6.87658e-20
1.64181e-13
-3.74845e-21
2.79806e-20
1.62475e-13
5.92595e-16
1.62261e-13
6.79929e-16
1.62213e-13
1.53884e-16
1.62195e-13
5.5792e-17
1.62194e-13
6.44759e-18
1.62192e-13
3.71659e-18
1.62193e-13
-1.08942e-18
1.62192e-13
8.26329e-19
1.62193e-13
-8.33699e-19
1.62192e-13
4.25009e-19
1.62192e-13
-1.62696e-19
1.62192e-13
4.26591e-19
1.62192e-13
-1.31058e-19
1.62192e-13
1.75774e-19
1.62192e-13
-8.23626e-20
1.62192e-13
9.23021e-20
1.62192e-13
-7.74439e-20
1.62192e-13
7.9273e-20
1.62192e-13
-1.05686e-20
6.38316e-20
1.59477e-13
7.64418e-16
1.59283e-13
8.73996e-16
1.59241e-13
1.9596e-16
1.59225e-13
7.15548e-17
1.59224e-13
7.82056e-18
1.59223e-13
4.99006e-18
1.59223e-13
-1.50999e-18
1.59223e-13
1.1909e-18
1.59223e-13
-1.15762e-18
1.59223e-13
5.80584e-19
1.59223e-13
-3.00116e-19
1.59223e-13
5.51298e-19
1.59223e-13
-1.92561e-19
1.59223e-13
2.58098e-19
1.59223e-13
-1.34915e-19
1.59223e-13
1.08485e-19
1.59223e-13
-8.5881e-20
1.59223e-13
1.26781e-19
1.59223e-13
-2.67558e-20
7.00586e-20
1.55507e-13
9.14099e-16
1.55339e-13
1.04141e-15
1.55304e-13
2.3098e-16
1.55291e-13
8.47658e-17
1.5529e-13
8.75027e-18
1.55289e-13
6.06234e-18
1.55289e-13
-1.99998e-18
1.55289e-13
1.54424e-18
1.55289e-13
-1.47332e-18
1.55289e-13
7.24814e-19
1.55289e-13
-3.61289e-19
1.55289e-13
6.61201e-19
1.55289e-13
-2.43784e-19
1.55289e-13
3.1171e-19
1.55289e-13
-2.0277e-19
1.55289e-13
1.43988e-19
1.55289e-13
-1.20402e-19
1.55289e-13
1.1366e-19
1.55289e-13
-2.01722e-20
1.0378e-19
1.50587e-13
1.03707e-15
1.50451e-13
1.17695e-15
1.50425e-13
2.57771e-16
1.50414e-13
9.50616e-17
1.50414e-13
9.29662e-18
1.50413e-13
7.05014e-18
1.50413e-13
-2.41953e-18
1.50413e-13
1.87731e-18
1.50413e-13
-1.78363e-18
1.50413e-13
9.03481e-19
1.50413e-13
-4.40355e-19
1.50413e-13
8.23875e-19
1.50413e-13
-2.94846e-19
1.50413e-13
3.55696e-19
1.50413e-13
-2.38015e-19
1.50413e-13
1.73126e-19
1.50413e-13
-1.30131e-19
1.50413e-13
1.16876e-19
1.50413e-13
-3.54434e-20
1.60916e-19
1.44746e-13
1.12951e-15
1.44647e-13
1.27628e-15
1.44629e-13
2.7529e-16
1.44622e-13
1.02014e-16
1.44622e-13
9.26621e-18
1.44622e-13
7.79031e-18
1.44622e-13
-2.82625e-18
1.44622e-13
2.20102e-18
1.44622e-13
-2.03737e-18
1.44622e-13
1.02855e-18
1.44622e-13
-5.469e-19
1.44622e-13
9.63055e-19
1.44622e-13
-3.54564e-19
1.44622e-13
3.92055e-19
1.44622e-13
-2.57962e-19
1.44622e-13
1.93943e-19
1.44622e-13
-1.50037e-19
1.44622e-13
1.60775e-19
1.44622e-13
-1.04917e-21
1.62933e-19
1.38018e-13
1.1884e-15
1.37959e-13
1.33605e-15
1.37951e-13
2.83045e-16
1.37947e-13
1.05512e-16
1.37948e-13
8.75369e-18
1.37947e-13
8.36891e-18
1.37948e-13
-3.19465e-18
1.37947e-13
2.50214e-18
1.37948e-13
-2.24493e-18
1.37948e-13
1.18754e-18
1.37948e-13
-6.3089e-19
1.37947e-13
1.07175e-18
1.37948e-13
-4.52639e-19
1.37947e-13
4.43577e-19
1.37947e-13
-2.55832e-19
1.37947e-13
2.30037e-19
1.37947e-13
-1.79205e-19
1.37947e-13
1.6753e-19
1.37947e-13
-1.29078e-20
1.68303e-19
1.30443e-13
1.21167e-15
1.30424e-13
1.3542e-15
1.30427e-13
2.80934e-16
1.30427e-13
1.05489e-16
1.30428e-13
7.74513e-18
1.30427e-13
8.70526e-18
1.30428e-13
-3.54985e-18
1.30427e-13
2.71936e-18
1.30427e-13
-2.45613e-18
1.30427e-13
1.2885e-18
1.30427e-13
-7.37857e-19
1.30427e-13
1.14107e-18
1.30427e-13
-4.53921e-19
1.30427e-13
4.69327e-19
1.30427e-13
-3.18743e-19
1.30427e-13
2.34387e-19
1.30427e-13
-1.73265e-19
1.30427e-13
1.72658e-19
1.30427e-13
-5.5936e-20
1.36081e-19
1.22063e-13
1.19841e-15
1.22087e-13
1.33016e-15
1.22098e-13
2.69278e-16
1.22102e-13
1.02126e-16
1.22103e-13
6.35918e-18
1.22103e-13
8.87298e-18
1.22103e-13
-3.878e-18
1.22103e-13
2.8921e-18
1.22103e-13
-2.60852e-18
1.22103e-13
1.38511e-18
1.22103e-13
-8.14518e-19
1.22103e-13
1.21882e-18
1.22103e-13
-5.24741e-19
1.22103e-13
5.06005e-19
1.22103e-13
-3.3238e-19
1.22103e-13
2.40211e-19
1.22103e-13
-2.01877e-19
1.22103e-13
1.90074e-19
1.22103e-13
2.1773e-22
1.57854e-19
1.12927e-13
1.14893e-15
1.12992e-13
1.26489e-15
1.13013e-13
2.48898e-16
1.13019e-13
9.56625e-17
1.13021e-13
4.64458e-18
1.13021e-13
8.81498e-18
1.13021e-13
-4.1029e-18
1.13021e-13
3.02395e-18
1.13021e-13
-2.66236e-18
1.13021e-13
1.4778e-18
1.13021e-13
-8.84751e-19
1.13021e-13
1.24075e-18
1.13021e-13
-5.44557e-19
1.13021e-13
5.38429e-19
1.13021e-13
-3.60874e-19
1.13021e-13
2.49e-19
1.13021e-13
-2.12964e-19
1.13021e-13
2.15233e-19
1.13021e-13
-1.4329e-20
2.03268e-19
1.03089e-13
1.06499e-15
1.03193e-13
1.16117e-15
1.0322e-13
2.21057e-16
1.0323e-13
8.65208e-17
1.03231e-13
2.75599e-18
1.03232e-13
8.6089e-18
1.03232e-13
-4.27474e-18
1.03232e-13
3.17331e-18
1.03232e-13
-2.71834e-18
1.03232e-13
1.52727e-18
1.03232e-13
-9.34187e-19
1.03232e-13
1.30294e-18
1.03232e-13
-5.83676e-19
1.03232e-13
5.57573e-19
1.03232e-13
-3.73102e-19
1.03232e-13
2.97247e-19
1.03232e-13
-1.69434e-19
1.03232e-13
2.21477e-19
1.03232e-13
-2.88753e-20
2.03633e-19
9.2605e-14
9.5003e-16
9.27424e-14
1.02374e-15
9.27761e-14
1.87394e-16
9.27874e-14
7.52518e-17
9.27893e-14
8.44146e-19
9.27897e-14
8.15999e-18
9.27897e-14
-4.3216e-18
9.27897e-14
3.21386e-18
9.27897e-14
-2.75594e-18
9.27896e-14
1.5362e-18
9.27897e-14
-9.73676e-19
9.27897e-14
1.25744e-18
9.27897e-14
-6.03032e-19
9.27897e-14
5.58251e-19
9.27897e-14
-3.94053e-19
9.27897e-14
3.00754e-19
9.27897e-14
-1.83761e-19
9.27897e-14
2.03543e-19
9.27897e-14
-3.80527e-20
2.1868e-19
8.15362e-14
8.09279e-16
8.17005e-14
8.5945e-16
8.17378e-14
1.50089e-16
8.17505e-14
6.25448e-17
8.17523e-14
-9.54234e-19
8.17529e-14
7.57714e-18
8.17528e-14
-4.26816e-18
8.17529e-14
3.12193e-18
8.17528e-14
-2.6652e-18
8.17528e-14
1.5391e-18
8.17528e-14
-9.86343e-19
8.17529e-14
1.17482e-18
8.17529e-14
-6.21772e-19
8.17529e-14
5.43953e-19
8.17528e-14
-3.84035e-19
8.17528e-14
2.69535e-19
8.17528e-14
-2.06561e-19
8.17528e-14
1.9234e-19
8.17528e-14
-4.04344e-20
2.02491e-19
6.99467e-14
6.49855e-16
7.01287e-14
6.77386e-16
7.01671e-14
1.11696e-16
7.01805e-14
4.913e-17
7.0182e-14
-2.45435e-18
7.01828e-14
6.77693e-18
7.01826e-14
-4.06215e-18
7.01827e-14
2.96195e-18
7.01825e-14
-2.46503e-18
7.01826e-14
1.49648e-18
7.01826e-14
-9.90543e-19
7.01827e-14
1.08358e-18
7.01826e-14
-6.15619e-19
7.01827e-14
5.30796e-19
7.01826e-14
-3.60479e-19
7.01826e-14
2.55201e-19
7.01826e-14
-1.88868e-19
7.01826e-14
1.65777e-19
7.01826e-14
-2.59618e-20
1.82304e-19
5.79035e-14
4.81293e-16
5.80917e-14
4.89243e-16
5.81285e-14
7.4854e-17
5.81418e-14
3.58234e-17
5.81428e-14
-3.40878e-18
5.81437e-14
5.76251e-18
5.81433e-14
-3.66885e-18
5.81436e-14
2.68832e-18
5.81433e-14
-2.15188e-18
5.81434e-14
1.34496e-18
5.81434e-14
-9.06814e-19
5.81435e-14
9.64846e-19
5.81434e-14
-5.54631e-19
5.81435e-14
4.40706e-19
5.81434e-14
-3.42765e-19
5.81435e-14
2.11477e-19
5.81434e-14
-1.53953e-19
5.81435e-14
1.36737e-19
5.81435e-14
-4.67875e-20
1.24965e-19
4.54765e-14
3.15333e-16
4.56566e-14
3.09192e-16
4.56889e-14
4.25554e-17
4.57013e-14
2.34394e-17
4.57016e-14
-3.71986e-18
4.57028e-14
4.60665e-18
4.57021e-14
-3.05063e-18
4.57026e-14
2.25678e-18
4.57022e-14
-1.7645e-18
4.57024e-14
1.14691e-18
4.57022e-14
-7.9061e-19
4.57024e-14
7.41031e-19
4.57023e-14
-4.68371e-19
4.57024e-14
3.27987e-19
4.57023e-14
-2.83987e-19
4.57024e-14
1.40829e-19
4.57023e-14
-1.50306e-19
4.57024e-14
1.35373e-19
4.57024e-14
-6.07931e-20
9.18521e-20
3.27378e-14
1.66605e-16
3.28929e-14
1.54101e-16
3.29176e-14
1.78147e-17
3.29284e-14
1.27146e-17
3.29278e-14
-3.16873e-18
3.29292e-14
3.1724e-18
3.29283e-14
-2.17054e-18
3.2929e-14
1.60247e-18
3.29284e-14
-1.21085e-18
3.29288e-14
8.37956e-19
3.29285e-14
-5.97637e-19
3.29288e-14
4.97562e-19
3.29286e-14
-3.33987e-19
3.29287e-14
2.51908e-19
3.29286e-14
-1.91339e-19
3.29287e-14
1.34394e-19
3.29287e-14
-1.01859e-19
3.29287e-14
1.00342e-19
3.29287e-14
-6.55648e-20
8.63475e-20
1.97612e-14
5.25964e-17
1.98714e-14
4.3906e-17
1.98858e-14
3.42597e-18
1.98942e-14
4.28781e-18
1.98926e-14
-1.6014e-18
1.98944e-14
1.38525e-18
1.98932e-14
-9.70241e-19
1.9894e-14
7.23676e-19
1.98933e-14
-5.28144e-19
1.98938e-14
3.75321e-19
1.98935e-14
-2.7711e-19
1.98938e-14
2.22687e-19
1.98936e-14
-1.57381e-19
1.98937e-14
1.0156e-19
1.98936e-14
-8.41012e-20
1.98937e-14
6.12951e-20
1.98936e-14
-5.74906e-20
1.98937e-14
3.98588e-20
1.98936e-14
-4.27778e-20
3.3268e-20
6.61889e-15
6.66279e-15
6.66619e-15
6.67049e-15
6.66888e-15
6.67026e-15
6.66927e-15
6.66999e-15
6.66945e-15
6.66982e-15
6.66955e-15
6.66977e-15
6.66962e-15
6.66973e-15
6.66964e-15
6.6697e-15
6.66965e-15
6.66969e-15
6.66966e-15
)
;

boundaryField
{
    top
    {
        type            calculated;
        value           uniform 0;
    }
    bottom
    {
        type            symmetryPlane;
        value           uniform 0;
    }
    inlet
    {
        type            calculated;
        value           nonuniform List<scalar> 
20
(
-1.65696e-13
-1.64684e-13
-1.62664e-13
-1.59649e-13
-1.55656e-13
-1.5071e-13
-1.44839e-13
-1.38077e-13
-1.30466e-13
-1.22049e-13
-1.12878e-13
-1.03005e-13
-9.24901e-14
-8.13955e-14
-6.97873e-14
-5.77349e-14
-4.53106e-14
-3.25891e-14
-1.96472e-14
-6.56629e-15
)
;
    }
    outlet
    {
        type            calculated;
        value           nonuniform List<scalar> 
20
(
1.65178e-13
1.64181e-13
1.62192e-13
1.59223e-13
1.55289e-13
1.50413e-13
1.44622e-13
1.37947e-13
1.30427e-13
1.22103e-13
1.13021e-13
1.03232e-13
9.27897e-14
8.17529e-14
7.01826e-14
5.81435e-14
4.57024e-14
3.29287e-14
1.98937e-14
6.66968e-15
)
;
    }
    frontAndBack
    {
        type            empty;
        value           nonuniform 0();
    }
}


// ************************************************************************* //
