/*--------------------------------*- C++ -*----------------------------------*\
| =========                 |                                                 |
| \\      /  F ield         | OpenFOAM: The Open Source CFD Toolbox           |
|  \\    /   O peration     | Version:  5.0                                   |
|   \\  /    A nd           | Web:      www.OpenFOAM.org                      |
|    \\/     M anipulation  |                                                 |
\*---------------------------------------------------------------------------*/
FoamFile
{
    version     2.0;
    format      ascii;
    class       volVectorField;
    location    "0.9";
    object      U;
}
// * * * * * * * * * * * * * * * * * * * * * * * * * * * * * * * * * * * * * //

dimensions      [0 1 -1 0 0 0 0];

internalField   nonuniform List<vector> 
400
(
(3.31414e-09 2.03834e-13 -7.71691e-35)
(3.30514e-09 2.37252e-13 -4.73808e-34)
(3.30488e-09 5.515e-14 -3.38239e-34)
(3.3033e-09 1.91093e-14 0)
(3.30388e-09 2.73279e-15 0)
(3.30336e-09 9.97562e-16 3.49918e-34)
(3.30372e-09 -1.16453e-16 3.47612e-34)
(3.30345e-09 1.2647e-16 -3.47406e-34)
(3.30365e-09 -1.58385e-16 -3.47061e-34)
(3.30351e-09 6.11463e-17 0)
(3.30361e-09 2.05236e-17 1.98891e-36)
(3.30353e-09 6.90168e-17 0)
(3.30359e-09 -2.16139e-17 0)
(3.30355e-09 4.89826e-17 0)
(3.30358e-09 -8.66753e-18 0)
(3.30356e-09 2.01716e-17 3.52192e-34)
(3.30357e-09 -1.38932e-17 -5.20612e-46)
(3.30356e-09 1.58279e-17 1.52467e-48)
(3.30357e-09 4.1577e-18 3.28187e-72)
(3.30356e-09 1.10366e-17 -3.53331e-34)
(3.29388e-09 6.10292e-13 -1.818e-47)
(3.28512e-09 7.06684e-13 -1.77577e-34)
(3.28491e-09 1.62545e-13 3.98761e-35)
(3.28336e-09 5.73426e-14 -2.93726e-34)
(3.28394e-09 7.63121e-15 0)
(3.28342e-09 3.26731e-15 0)
(3.28378e-09 -6.29978e-16 -7.63585e-36)
(3.28351e-09 5.51028e-16 6.03524e-34)
(3.28371e-09 -5.97891e-16 4.24214e-36)
(3.28357e-09 3.00189e-16 -5.99197e-34)
(3.28367e-09 -2.29815e-17 -3.00342e-34)
(3.28359e-09 3.32571e-16 -3.01504e-34)
(3.28365e-09 -5.9609e-17 0)
(3.28361e-09 1.25719e-16 0)
(3.28364e-09 -3.08574e-17 -3.00926e-34)
(3.28361e-09 8.47508e-17 -1.69685e-36)
(3.28363e-09 -9.0554e-17 3.00856e-34)
(3.28362e-09 8.24815e-17 2.99941e-34)
(3.28362e-09 -7.85418e-18 -3.35692e-46)
(3.28362e-09 3.31215e-17 -3.01217e-34)
(3.25348e-09 1.00301e-12 -8.56639e-35)
(3.24518e-09 1.15397e-12 1.5119e-33)
(3.24507e-09 2.62645e-13 3.06766e-34)
(3.24357e-09 9.45695e-14 -2.97109e-34)
(3.24416e-09 1.14185e-14 -3.02096e-34)
(3.24364e-09 6.05668e-15 8.48427e-37)
(3.244e-09 -1.61146e-15 -2.54528e-36)
(3.24374e-09 1.24806e-15 2.99217e-34)
(3.24393e-09 -1.27543e-15 -1.2405e-48)
(3.24379e-09 6.70108e-16 -2.9875e-34)
(3.24389e-09 -2.15015e-16 3.00342e-34)
(3.24382e-09 6.86771e-16 1.69685e-36)
(3.24387e-09 -1.68298e-16 -3.01043e-34)
(3.24383e-09 2.69509e-16 -3.0159e-34)
(3.24386e-09 -9.9512e-17 6.01006e-34)
(3.24384e-09 1.52148e-16 2.99908e-34)
(3.24385e-09 -1.49277e-16 -6.01713e-34)
(3.24384e-09 1.4501e-16 3.39371e-36)
(3.24385e-09 -1.10931e-17 -9.99072e-46)
(3.24385e-09 9.41432e-17 1.70436e-36)
(3.19318e-09 1.3667e-12 -9.27688e-34)
(3.18556e-09 1.56569e-12 2.32535e-33)
(3.18559e-09 3.53032e-13 -6.12695e-34)
(3.18417e-09 1.28467e-13 -4.05698e-34)
(3.18476e-09 1.4478e-14 3.02074e-34)
(3.18425e-09 8.76513e-15 3.05317e-34)
(3.18461e-09 -2.59556e-15 2.96006e-34)
(3.18435e-09 2.00094e-15 2.54528e-36)
(3.18454e-09 -1.99272e-15 -3.00625e-34)
(3.1844e-09 1.01445e-15 3.00448e-34)
(3.1845e-09 -4.58605e-16 2.96949e-34)
(3.18443e-09 9.87537e-16 -1.69685e-36)
(3.18448e-09 -3.05905e-16 -3.39371e-36)
(3.18444e-09 4.33203e-16 -8.48427e-37)
(3.18447e-09 -2.0824e-16 -3.33155e-46)
(3.18445e-09 1.99354e-16 8.48427e-37)
(3.18446e-09 -1.6517e-16 2.99161e-34)
(3.18445e-09 2.14233e-16 -2.94852e-34)
(3.18446e-09 -4.65342e-17 -1.69685e-36)
(3.18446e-09 1.28113e-16 6.02431e-34)
(3.11333e-09 1.69064e-12 2.89454e-33)
(3.1066e-09 1.9299e-12 -2.21944e-33)
(3.10681e-09 4.30784e-13 -9.17416e-34)
(3.10548e-09 1.57708e-13 -1.69822e-34)
(3.10608e-09 1.67745e-14 5.93068e-34)
(3.10558e-09 1.11462e-14 2.98532e-34)
(3.10593e-09 -3.51558e-15 0)
(3.10567e-09 2.75087e-15 -4.24214e-36)
(3.10587e-09 -2.6586e-15 0)
(3.10573e-09 1.31284e-15 5.99197e-34)
(3.10583e-09 -6.65472e-16 -2.54528e-36)
(3.10575e-09 1.22226e-15 1.69685e-36)
(3.10581e-09 -4.31848e-16 3.00192e-34)
(3.10577e-09 5.72722e-16 -1.49567e-48)
(3.10579e-09 -3.50953e-16 8.48427e-37)
(3.10577e-09 2.48393e-16 -3.00756e-34)
(3.10579e-09 -2.15023e-16 3.00012e-34)
(3.10578e-09 2.4922e-16 2.97397e-34)
(3.10578e-09 -4.9814e-17 -8.48427e-37)
(3.10578e-09 1.63092e-16 3.40873e-36)
(3.01439e-09 1.9653e-12 -1.71128e-34)
(3.00873e-09 2.23524e-12 -3.22503e-33)
(3.00916e-09 4.93137e-13 5.95884e-34)
(3.00794e-09 1.81412e-13 7.29647e-35)
(3.00855e-09 1.82845e-14 -3.02018e-34)
(3.00806e-09 1.32129e-14 -8.48427e-36)
(3.00841e-09 -4.42666e-15 1.35748e-35)
(3.00815e-09 3.4322e-15 -1.01811e-35)
(3.00834e-09 -3.28043e-15 0)
(3.00821e-09 1.61354e-15 2.99598e-34)
(3.00831e-09 -8.11909e-16 -2.97796e-34)
(3.00823e-09 1.48594e-15 -3.02351e-34)
(3.00829e-09 -5.49682e-16 3.01891e-34)
(3.00824e-09 6.74652e-16 -2.99894e-34)
(3.00827e-09 -4.4912e-16 3.02624e-34)
(3.00825e-09 3.12096e-16 2.99907e-34)
(3.00827e-09 -2.53478e-16 -3.00861e-34)
(3.00826e-09 2.29512e-16 -1.69685e-36)
(3.00826e-09 -6.42449e-17 -2.99109e-34)
(3.00826e-09 2.6786e-16 -3.01219e-34)
(2.89697e-09 2.18237e-12 -1.13732e-47)
(2.89253e-09 2.47201e-12 1.63153e-33)
(2.89319e-09 5.37817e-13 -8.48427e-36)
(2.8921e-09 1.98772e-13 -1.59504e-34)
(2.89272e-09 1.88148e-14 1.44233e-35)
(2.89224e-09 1.49243e-14 -2.98538e-34)
(2.89258e-09 -5.26073e-15 -2.85819e-34)
(2.89233e-09 4.0918e-15 5.93358e-34)
(2.89252e-09 -3.82839e-15 3.04012e-34)
(2.89238e-09 1.93248e-15 -5.992e-34)
(2.89248e-09 -9.89877e-16 3.02885e-34)
(2.89241e-09 1.78703e-15 2.98958e-34)
(2.89246e-09 -6.50289e-16 3.00195e-34)
(2.89242e-09 7.48362e-16 -2.99894e-34)
(2.89245e-09 -4.91906e-16 -6.00157e-34)
(2.89243e-09 3.70808e-16 8.99722e-34)
(2.89244e-09 -2.84421e-16 3.9997e-45)
(2.89243e-09 2.75235e-16 -2.99942e-34)
(2.89244e-09 -4.76899e-17 2.99958e-34)
(2.89243e-09 3.37415e-16 1.70436e-36)
(2.76174e-09 2.33497e-12 1.83709e-33)
(2.75864e-09 2.63241e-12 1.16305e-33)
(2.75955e-09 5.63262e-13 -3.03602e-34)
(2.7586e-09 2.09274e-13 1.64595e-34)
(2.75922e-09 1.82627e-14 3.01948e-34)
(2.75875e-09 1.62655e-14 -2.86664e-34)
(2.75909e-09 -6.03955e-15 -3.09572e-34)
(2.75885e-09 4.71661e-15 3.19589e-34)
(2.75903e-09 -4.29553e-15 3.03162e-34)
(2.75889e-09 2.23012e-15 2.54528e-36)
(2.75899e-09 -1.19425e-15 2.95248e-34)
(2.75892e-09 2.04585e-15 2.99807e-34)
(2.75897e-09 -8.12495e-16 -3.03588e-34)
(2.75893e-09 8.42809e-16 -1.69685e-36)
(2.75896e-09 -5.18626e-16 3.05169e-34)
(2.75894e-09 4.334e-16 3.01603e-34)
(2.75896e-09 -3.35545e-16 2.66465e-45)
(2.75895e-09 3.20039e-16 -2.98246e-34)
(2.75895e-09 -1.8843e-17 2.9826e-34)
(2.75895e-09 3.35373e-16 6.02435e-34)
(2.60951e-09 2.41785e-12 -2.00618e-33)
(2.60783e-09 2.71098e-12 -2.09893e-33)
(2.60899e-09 5.68844e-13 3.02747e-34)
(2.60818e-09 2.12726e-13 8.06006e-35)
(2.6088e-09 1.6719e-14 -3.01914e-34)
(2.60835e-09 1.71839e-14 -1.27264e-35)
(2.60869e-09 -6.75429e-15 2.92601e-34)
(2.60844e-09 5.2429e-15 -7.63585e-36)
(2.60862e-09 -4.71727e-15 -3.00614e-34)
(2.60849e-09 2.49381e-15 5.99202e-34)
(2.60859e-09 -1.37757e-15 3.00337e-34)
(2.60852e-09 2.22392e-15 8.48427e-37)
(2.60857e-09 -9.06268e-16 -6.00391e-34)
(2.60853e-09 9.20542e-16 -2.98202e-34)
(2.60856e-09 -5.75248e-16 5.9846e-34)
(2.60854e-09 4.74561e-16 2.99055e-34)
(2.60855e-09 -3.64384e-16 -2.99165e-34)
(2.60854e-09 3.49389e-16 -6.00737e-34)
(2.60855e-09 -5.64622e-17 2.99956e-34)
(2.60855e-09 3.12197e-16 6.03286e-34)
(2.44118e-09 2.42799e-12 -2.11093e-33)
(2.44097e-09 2.70496e-12 -2.0928e-33)
(2.44236e-09 5.54787e-13 3.01876e-34)
(2.44168e-09 2.09223e-13 3.30904e-46)
(2.44231e-09 1.4286e-14 -3.26485e-34)
(2.44187e-09 1.76841e-14 -6.62927e-46)
(2.4422e-09 -7.44277e-15 -3.21445e-34)
(2.44196e-09 5.62405e-15 -5.93899e-36)
(2.44214e-09 -5.08129e-15 5.96134e-34)
(2.44201e-09 2.68876e-15 -2.97056e-34)
(2.4421e-09 -1.55063e-15 -2.96941e-34)
(2.44203e-09 2.35759e-15 2.99808e-34)
(2.44208e-09 -9.74802e-16 6.01241e-34)
(2.44205e-09 9.7707e-16 -2.99899e-34)
(2.44207e-09 -6.56034e-16 -6.00157e-34)
(2.44205e-09 4.7786e-16 2.99904e-34)
(2.44207e-09 -3.69756e-16 -1.43646e-50)
(2.44206e-09 3.65141e-16 2.99944e-34)
(2.44206e-09 -5.14531e-17 2.99956e-34)
(2.44206e-09 2.88092e-16 1.33767e-45)
(2.25775e-09 2.36472e-12 -1.97661e-33)
(2.25898e-09 2.61469e-12 0)
(2.26058e-09 5.22252e-13 5.27377e-34)
(2.26004e-09 1.99213e-13 3.63244e-34)
(2.26065e-09 1.1136e-14 -3.01852e-34)
(2.26024e-09 1.77948e-14 3.11288e-34)
(2.26055e-09 -8.01241e-15 -1.10296e-35)
(2.26033e-09 5.93112e-15 -2.89054e-34)
(2.26049e-09 -5.27694e-15 2.97217e-34)
(2.26037e-09 2.86507e-15 3.31904e-46)
(2.26046e-09 -1.70431e-15 -1.01811e-35)
(2.26039e-09 2.47137e-15 -7.98845e-45)
(2.26044e-09 -1.07074e-15 -6.0209e-34)
(2.26041e-09 1.04368e-15 -1.36394e-48)
(2.26043e-09 -7.00631e-16 5.99309e-34)
(2.26041e-09 4.89814e-16 2.99903e-34)
(2.26043e-09 -4.03809e-16 -1.33233e-45)
(2.26042e-09 4.12901e-16 -5.99042e-34)
(2.26042e-09 -1.67853e-17 1.33493e-45)
(2.26042e-09 3.5556e-16 6.02441e-34)
(2.0603e-09 2.22998e-12 1.85075e-33)
(2.0629e-09 2.44381e-12 2.88682e-34)
(2.06467e-09 4.73298e-13 6.0043e-34)
(2.06425e-09 1.83375e-13 -2.97096e-34)
(2.06485e-09 7.46536e-15 -2.69587e-34)
(2.06446e-09 1.75144e-14 2.85845e-34)
(2.06476e-09 -8.41804e-15 2.20591e-35)
(2.06454e-09 6.22496e-15 -6.78742e-36)
(2.0647e-09 -5.39991e-15 2.54528e-36)
(2.06459e-09 3.01742e-15 2.96208e-34)
(2.06467e-09 -1.82067e-15 -2.96938e-34)
(2.06461e-09 2.55095e-15 -3.00658e-34)
(2.06466e-09 -1.12878e-15 3.01894e-34)
(2.06462e-09 1.10697e-15 -2.999e-34)
(2.06465e-09 -7.44896e-16 1.69685e-36)
(2.06463e-09 5.45025e-16 -1.69685e-36)
(2.06464e-09 -3.85793e-16 1.27285e-48)
(2.06463e-09 4.5445e-16 2.96554e-34)
(2.06464e-09 -3.03611e-17 -2.99106e-34)
(2.06464e-09 4.21172e-16 -3.0207e-34)
(1.85e-09 2.0289e-12 -8.50506e-35)
(1.85384e-09 2.19974e-12 -2.87732e-34)
(1.85572e-09 4.10807e-13 7.47475e-34)
(1.85542e-09 1.62656e-13 -3.64824e-35)
(1.856e-09 3.5778e-15 -6.03622e-34)
(1.85563e-09 1.68563e-14 -1.27264e-35)
(1.85591e-09 -8.65036e-15 2.20591e-35)
(1.85571e-09 6.40714e-15 -9.3327e-36)
(1.85586e-09 -5.50874e-15 3.06546e-34)
(1.85575e-09 3.06706e-15 -6.49668e-49)
(1.85583e-09 -1.91651e-15 6.78742e-36)
(1.85577e-09 2.57807e-15 2.54528e-36)
(1.85581e-09 -1.18163e-15 3.01892e-34)
(1.85578e-09 1.11795e-15 -3.30354e-46)
(1.8558e-09 -7.6911e-16 -3.0008e-34)
(1.85579e-09 5.95456e-16 5.96412e-34)
(1.8558e-09 -3.58511e-16 -3.0171e-34)
(1.85579e-09 4.30548e-16 -3.00796e-34)
(1.8558e-09 -6.92987e-17 2.99954e-34)
(1.85579e-09 4.32361e-16 -1.33768e-45)
(1.6281e-09 1.7701e-12 1.34477e-33)
(1.63298e-09 1.89404e-12 0)
(1.63491e-09 3.38699e-13 2.98915e-34)
(1.6347e-09 1.38319e-13 -3.22402e-35)
(1.63525e-09 -2.14782e-16 -3.01803e-34)
(1.6349e-09 1.58255e-14 -2.85869e-34)
(1.63517e-09 -8.65812e-15 -6.69851e-46)
(1.63498e-09 6.38147e-15 3.08577e-34)
(1.63512e-09 -5.46993e-15 2.92119e-34)
(1.63501e-09 3.08818e-15 6.49649e-49)
(1.63509e-09 -1.96869e-15 -6.5123e-49)
(1.63503e-09 2.46639e-15 -1.69685e-36)
(1.63507e-09 -1.22164e-15 2.9765e-34)
(1.63504e-09 1.11723e-15 -9.96258e-46)
(1.63507e-09 -7.7858e-16 -6.01861e-34)
(1.63505e-09 5.79255e-16 5.97261e-34)
(1.63506e-09 -3.95566e-16 5.09056e-36)
(1.63505e-09 4.03499e-16 -2.99949e-34)
(1.63506e-09 -7.49005e-17 3.33081e-46)
(1.63506e-09 4.46888e-16 -3.01217e-34)
(1.39594e-09 1.46587e-12 7.92468e-34)
(1.40156e-09 1.54259e-12 2.74653e-35)
(1.40346e-09 2.61701e-13 0)
(1.40332e-09 1.11824e-13 3.2968e-50)
(1.40382e-09 -3.60576e-15 3.40835e-34)
(1.40351e-09 1.44365e-14 -8.72126e-51)
(1.40376e-09 -8.42116e-15 -3.36802e-46)
(1.40358e-09 6.14508e-15 2.99246e-34)
(1.40371e-09 -5.18494e-15 4.13278e-50)
(1.40361e-09 3.0554e-15 -2.99607e-34)
(1.40368e-09 -1.98748e-15 -6.00659e-34)
(1.40363e-09 2.28433e-15 2.98963e-34)
(1.40367e-09 -1.25439e-15 -1.32493e-45)
(1.40364e-09 1.08103e-15 -3.99819e-45)
(1.40366e-09 -7.59591e-16 3.00083e-34)
(1.40365e-09 5.41558e-16 -2.99902e-34)
(1.40366e-09 -3.85476e-16 3.05101e-34)
(1.40365e-09 3.4799e-16 -1.33205e-45)
(1.40365e-09 -7.09529e-17 1.33338e-45)
(1.40365e-09 3.84829e-16 3.01215e-34)
(1.15489e-09 1.13254e-12 -4.96687e-34)
(1.16089e-09 1.16582e-12 -2.85677e-34)
(1.16266e-09 1.84983e-13 2.61201e-49)
(1.16257e-09 8.47084e-14 -3.55107e-34)
(1.16302e-09 -6.17384e-15 -3.01823e-34)
(1.16275e-09 1.26519e-14 -1.35748e-35)
(1.16296e-09 -7.84338e-15 3.32946e-46)
(1.1628e-09 5.72603e-15 2.89917e-34)
(1.16292e-09 -4.65999e-15 3.06538e-34)
(1.16283e-09 2.87593e-15 -6.49685e-49)
(1.16289e-09 -1.91735e-15 -3.05419e-34)
(1.16285e-09 2.07432e-15 2.54528e-36)
(1.16288e-09 -1.19036e-15 6.04632e-34)
(1.16286e-09 9.7017e-16 1.69685e-36)
(1.16288e-09 -7.23922e-16 -5.99317e-34)
(1.16286e-09 4.80176e-16 0)
(1.16287e-09 -3.42506e-16 -8.48427e-37)
(1.16287e-09 3.08974e-16 3.01649e-34)
(1.16287e-09 -7.77332e-17 1.69685e-36)
(1.16287e-09 3.03102e-16 -3.01213e-34)
(9.06407e-10 7.90142e-13 -8.45613e-35)
(9.12294e-10 7.8851e-13 -2.85392e-34)
(9.13845e-10 1.14168e-13 2.3532e-34)
(9.138e-10 5.85652e-14 5.17541e-35)
(9.14175e-10 -7.50985e-15 -6.48667e-34)
(9.13944e-10 1.04867e-14 0)
(9.14124e-10 -6.83278e-15 -1.44233e-35)
(9.13992e-10 5.01639e-15 1.10296e-35)
(9.14088e-10 -3.97227e-15 3.00596e-34)
(9.14015e-10 2.53844e-15 2.99608e-34)
(9.14068e-10 -1.75304e-15 -3.00327e-34)
(9.14031e-10 1.73662e-15 -2.97267e-34)
(9.1406e-10 -1.03649e-15 2.96799e-34)
(9.14039e-10 7.95254e-16 8.48427e-37)
(9.14054e-10 -6.5207e-16 -3.0178e-34)
(9.14043e-10 3.66436e-16 2.99054e-34)
(9.1405e-10 -3.08456e-16 6.67462e-46)
(9.14045e-10 2.87756e-16 -8.48427e-37)
(9.14048e-10 -1.05441e-16 2.9911e-34)
(9.14047e-10 2.12429e-16 -6.68825e-46)
(6.51976e-10 4.65663e-13 0)
(6.57178e-10 4.4309e-13 -1.49069e-33)
(6.5841e-10 5.56701e-14 -2.98803e-34)
(6.58385e-10 3.48852e-14 -1.22954e-34)
(6.58674e-10 -7.22227e-15 0)
(6.58494e-10 7.82578e-15 0)
(6.58634e-10 -5.29727e-15 3.14637e-34)
(6.58531e-10 3.91605e-15 6.6643e-46)
(6.58606e-10 -3.00946e-15 -5.86609e-49)
(6.58549e-10 2.01593e-15 2.59865e-48)
(6.58589e-10 -1.41357e-15 -1.33104e-45)
(6.58561e-10 1.24841e-15 3.00662e-34)
(6.58583e-10 -8.09558e-16 -1.3331e-45)
(6.58567e-10 5.90855e-16 0)
(6.58579e-10 -4.90366e-16 1.17743e-52)
(6.5857e-10 2.90269e-16 -2.99902e-34)
(6.58576e-10 -2.70634e-16 -8.48427e-37)
(6.58572e-10 2.35973e-16 -6.66031e-46)
(6.58574e-10 -1.39246e-16 -2.99958e-34)
(6.58574e-10 1.9149e-16 -6.68825e-46)
(3.93137e-10 2.02106e-13 0)
(3.96955e-10 1.77569e-13 4.65698e-33)
(3.97769e-10 1.68688e-14 -2.99778e-34)
(3.97752e-10 1.5774e-14 -2.86768e-34)
(3.9794e-10 -5.03871e-15 0)
(3.97821e-10 4.56432e-15 -2.96972e-34)
(3.97912e-10 -3.18784e-15 -1.30528e-48)
(3.97845e-10 2.36031e-15 2.99261e-34)
(3.97894e-10 -1.76529e-15 3.00592e-34)
(3.97856e-10 1.22306e-15 2.99609e-34)
(3.97883e-10 -8.92174e-16 -2.54528e-36)
(3.97864e-10 7.22808e-16 -2.99816e-34)
(3.97879e-10 -4.90829e-16 -1.33312e-45)
(3.97869e-10 3.47429e-16 1.36567e-48)
(3.97876e-10 -2.75698e-16 -3.00084e-34)
(3.9787e-10 2.06965e-16 5.98956e-34)
(3.97874e-10 -1.63307e-16 -6.63553e-46)
(3.97872e-10 1.43571e-16 -2.98256e-34)
(3.97873e-10 -1.25592e-16 2.98263e-34)
(3.97873e-10 1.3332e-16 1.70436e-36)
(1.31461e-10 5.18705e-14 -1.16999e-34)
(1.3306e-10 4.23674e-14 1.33264e-33)
(1.3336e-10 2.82176e-15 5.10117e-34)
(1.3335e-10 4.23697e-15 -2.87897e-34)
(1.33419e-10 -1.69928e-15 -2.0967e-34)
(1.33374e-10 1.42821e-15 -2.74852e-36)
(1.33408e-10 -1.0188e-15 1.57059e-36)
(1.33383e-10 7.51276e-16 -1.17794e-36)
(1.33401e-10 -5.56988e-16 1.80991e-48)
(1.33387e-10 3.90397e-16 2.07983e-34)
(1.33397e-10 -2.88269e-16 0)
(1.3339e-10 2.28814e-16 0)
(1.33396e-10 -1.60518e-16 -3.08479e-46)
(1.33392e-10 1.14722e-16 0)
(1.33395e-10 -8.81634e-17 -2.07923e-34)
(1.33393e-10 5.73875e-17 2.08188e-34)
(1.33394e-10 -6.40467e-17 -2.08262e-34)
(1.33393e-10 4.34708e-17 -2.07831e-34)
(1.33394e-10 -4.18628e-17 4.16459e-34)
(1.33393e-10 3.33142e-17 0)
)
;

boundaryField
{
    top
    {
        type            fixedValue;
        value           uniform (0 0 0);
    }
    bottom
    {
        type            symmetryPlane;
    }
    inlet
    {
        type            pressureInletVelocity;
        value           nonuniform List<vector> 
20
(
(3.31391e-09 0 0)
(3.29369e-09 0 0)
(3.25329e-09 0 0)
(3.19298e-09 0 0)
(3.11313e-09 0 0)
(3.0142e-09 0 0)
(2.89677e-09 0 0)
(2.76155e-09 0 0)
(2.60932e-09 0 0)
(2.44099e-09 0 0)
(2.25755e-09 0 0)
(2.0601e-09 0 0)
(1.8498e-09 0 0)
(1.62791e-09 0 0)
(1.39575e-09 0 0)
(1.1547e-09 0 0)
(9.06212e-10 0 0)
(6.51781e-10 0 0)
(3.92943e-10 0 0)
(1.31326e-10 0 0)
)
;
    }
    outlet
    {
        type            inletOutlet;
        inletValue      uniform (1 0 0);
        value           nonuniform List<vector> 
20
(
(3.30356e-09 1.10366e-17 -3.53331e-34)
(3.28362e-09 3.31215e-17 -3.01217e-34)
(3.24385e-09 9.41432e-17 1.70436e-36)
(3.18446e-09 1.28113e-16 6.02431e-34)
(3.10578e-09 1.63092e-16 3.40873e-36)
(3.00826e-09 2.6786e-16 -3.01219e-34)
(2.89243e-09 3.37415e-16 1.70436e-36)
(2.75895e-09 3.35373e-16 6.02435e-34)
(2.60855e-09 3.12197e-16 6.03286e-34)
(2.44206e-09 2.88092e-16 1.33767e-45)
(2.26042e-09 3.5556e-16 6.02441e-34)
(2.06464e-09 4.21172e-16 -3.0207e-34)
(1.85579e-09 4.32361e-16 -1.33768e-45)
(1.63506e-09 4.46888e-16 -3.01217e-34)
(1.40365e-09 3.84829e-16 3.01215e-34)
(1.16287e-09 3.03102e-16 -3.01213e-34)
(9.14047e-10 2.12429e-16 -6.68825e-46)
(6.58574e-10 1.9149e-16 -6.68825e-46)
(3.97873e-10 1.3332e-16 1.70436e-36)
(1.33393e-10 3.33142e-17 0)
)
;
    }
    frontAndBack
    {
        type            empty;
    }
}


// ************************************************************************* //
