/*--------------------------------*- C++ -*----------------------------------*\
| =========                 |                                                 |
| \\      /  F ield         | OpenFOAM: The Open Source CFD Toolbox           |
|  \\    /   O peration     | Version:  5.0                                   |
|   \\  /    A nd           | Web:      www.OpenFOAM.org                      |
|    \\/     M anipulation  |                                                 |
\*---------------------------------------------------------------------------*/
FoamFile
{
    version     2.0;
    format      ascii;
    class       volVectorField;
    location    "0.9";
    object      U;
}
// * * * * * * * * * * * * * * * * * * * * * * * * * * * * * * * * * * * * * //

dimensions      [0 1 -1 0 0 0 0];

internalField   nonuniform List<vector> 
50
(
(1.00857 6.03934e-07 9.81044e-28)
(1.00848 -1.41031e-06 -3.2596e-23)
(1.00876 8.75201e-07 -3.263e-23)
(1.00814 -2.07844e-05 -3.2566e-23)
(1.01019 -6.76222e-05 -4.75432e-25)
(1.00738 -0.000999385 6.64653e-23)
(1.06017 0.00117023 8.36011e-23)
(1.06249 -0.000127799 -4.062e-23)
(1.06397 2.07259e-05 -4.62024e-25)
(1.06562 -0.00506586 2.01636e-23)
(0.927881 2.02472e-06 -7.17375e-37)
(0.927797 -4.5907e-06 2.82247e-23)
(0.928058 4.31319e-06 4.07286e-27)
(0.927463 -5.78698e-05 -2.84379e-23)
(0.928835 -0.000140159 -2.82116e-23)
(0.926307 -0.00420674 1.64414e-23)
(0.908366 -0.00536528 5.3131e-23)
(0.906434 -0.000752773 7.21045e-23)
(0.906758 -0.000125612 -4.69668e-25)
(0.90639 0.000741979 -9.56697e-23)
(0.766511 3.19877e-06 -2.76042e-23)
(0.766439 -7.01093e-06 -7.30787e-26)
(0.766658 9.14355e-06 2.82325e-23)
(0.766139 -6.77806e-05 -5.63686e-23)
(0.766957 -6.59195e-05 -5.63203e-23)
(0.764951 -0.00252139 2.65177e-23)
(0.751834 -0.00292382 3.07965e-23)
(0.749102 -0.000459424 2.97411e-23)
(0.749118 -0.000106581 1.6029e-25)
(0.748365 4.7037e-05 -3.19462e-23)
(0.524456 2.92205e-06 5.5296e-23)
(0.524403 -6.21402e-06 2.81424e-23)
(0.524559 9.63982e-06 -5.64635e-23)
(0.524182 -4.59888e-05 -2.79448e-23)
(0.524659 8.18175e-06 5.72584e-23)
(0.523363 -0.000774438 6.58587e-23)
(0.514997 -0.000899899 3.89889e-23)
(0.512614 -0.000159698 1.81034e-24)
(0.512549 -5.36703e-05 -2.75844e-23)
(0.511878 -0.00015974 -2.79948e-24)
(0.201714 1.08807e-06 3.97192e-23)
(0.201692 -2.28431e-06 2.01063e-23)
(0.201758 3.7559e-06 -6.03578e-23)
(0.2016 -1.46872e-05 -2.00913e-23)
(0.20179 1.01573e-05 4.02453e-23)
(0.201339 -0.000142926 3.81381e-23)
(0.198215 -0.000177965 1.98308e-23)
(0.197143 -3.29758e-05 -4.14043e-25)
(0.197129 -1.37873e-05 0)
(0.196814 -5.55208e-05 0)
)
;

boundaryField
{
    top
    {
        type            fixedValue;
        value           uniform (0 0 0);
    }
    bottom
    {
        type            symmetryPlane;
    }
    inlet
    {
        type            pressureInletVelocity;
        value           nonuniform List<vector> 5((1.00856 0 0) (0.927873 0 0) (0.766503 0 0) (0.524448 0 0) (0.201709 0 0));
    }
    outlet
    {
        type            inletOutlet;
        inletValue      uniform (1 0 0);
        value           nonuniform List<vector> 5((1.06562 -0.00506586 2.01636e-23) (0.90639 0.000741979 -9.56697e-23) (0.748365 4.7037e-05 -3.19462e-23) (0.511878 -0.00015974 -2.79948e-24) (0.196814 -5.55208e-05 0));
    }
    frontAndBack
    {
        type            empty;
    }
}


// ************************************************************************* //
