/*--------------------------------*- C++ -*----------------------------------*\
| =========                 |                                                 |
| \\      /  F ield         | OpenFOAM: The Open Source CFD Toolbox           |
|  \\    /   O peration     | Version:  5.0                                   |
|   \\  /    A nd           | Web:      www.OpenFOAM.org                      |
|    \\/     M anipulation  |                                                 |
\*---------------------------------------------------------------------------*/
FoamFile
{
    version     2.0;
    format      ascii;
    class       volScalarField;
    location    "0.5";
    object      p;
}
// * * * * * * * * * * * * * * * * * * * * * * * * * * * * * * * * * * * * * //

dimensions      [0 2 -2 0 0 0 0];

internalField   nonuniform List<scalar> 
200
(
0.0418876
0.00311915
0.000159426
0.00221277
-0.000590852
0.00176299
-1.43232e-06
0.000416262
-0.00077572
-0.0198096
0.036279
0.00303465
0.000203446
0.00221155
-0.000586336
0.0017597
-2.44299e-06
0.000396466
-0.000760278
-0.0168535
0.0301864
0.00296096
0.000230752
0.00221315
-0.000586049
0.0017596
-3.81456e-06
0.000383321
-0.000741551
-0.0136839
0.0240057
0.00292859
0.000236825
0.00221517
-0.000586997
0.00176039
-4.83737e-06
0.000379986
-0.000731438
-0.0105544
0.0177188
0.00293292
0.000227064
0.00221686
-0.000587986
0.00176115
-5.44192e-06
0.000384246
-0.00073028
-0.00744485
0.0113133
0.00296264
0.000206558
0.00221837
-0.000589197
0.00176203
-5.61592e-06
0.000393426
-0.00073511
-0.00432693
0.00478682
0.00300519
0.000180901
0.00221964
-0.000590448
0.00176289
-5.39712e-06
0.000404843
-0.000742825
-0.00118281
-0.00191805
0.00304531
0.000157491
0.00222042
-0.000591572
0.00176362
-4.58617e-06
0.000414729
-0.000749815
0.00203052
-0.00860779
0.00309662
0.000129841
0.00222167
-0.000593773
0.00176511
-3.56936e-06
0.000426339
-0.000759002
0.00524396
-0.0140331
0.00325688
4.93588e-05
0.00222764
-0.00060131
0.0017705
-4.78537e-06
0.000464696
-0.000792345
0.00789132
-0.016016
0.00355585
-0.000103948
0.00223867
-0.000612912
0.00177879
-9.43784e-06
0.000540774
-0.00085667
0.00892613
-0.0152319
0.00375116
-0.000208873
0.00224686
-0.00061837
0.00178254
-1.37653e-05
0.000592971
-0.000901908
0.00858993
-0.0148014
0.00376415
-0.000224338
0.00224878
-0.000616521
0.0017809
-1.49288e-05
0.000599862
-0.000906624
0.00837488
-0.0148126
0.003741
-0.000220961
0.00224932
-0.000613922
0.00177876
-1.52609e-05
0.000597219
-0.000902185
0.00836593
-0.0148912
0.00371593
-0.000215411
0.00224967
-0.000611679
0.00177694
-1.55526e-05
0.000593691
-0.000896679
0.00839135
-0.0149569
0.00368042
-0.000203529
0.00224957
-0.000609497
0.00177523
-1.56066e-05
0.000587019
-0.000888392
0.00840982
-0.0150329
0.00362919
-0.000182951
0.00224881
-0.000606993
0.00177334
-1.53564e-05
0.00057615
-0.000876083
0.00843079
-0.0151374
0.00355873
-0.00015197
0.00224732
-0.000604098
0.00177121
-1.47728e-05
0.000560221
-0.00085889
0.00846203
-0.0152919
0.00346263
-0.000106892
0.00224558
-0.000601319
0.00176928
-1.40093e-05
0.000537163
-0.000835815
0.00851192
-0.0154873
0.00335974
-5.58663e-05
0.00224526
-0.000600294
0.00176879
-1.3793e-05
0.000510778
-0.000812776
0.00857975
)
;

boundaryField
{
    top
    {
        type            zeroGradient;
    }
    bottom
    {
        type            zeroGradient;
    }
    inlet
    {
        type            fixedValue;
        value           uniform 0;
    }
    outlet
    {
        type            fixedValue;
        value           nonuniform 0();
    }
    frontAndBack
    {
        type            empty;
    }
    procBoundary0to1
    {
        type            processor;
        value           nonuniform List<scalar> 
20
(
0.0190344
0.0160799
0.0129111
0.00978212
0.00667274
0.0035546
0.00041002
-0.00280383
-0.00601782
-0.00866661
-0.00970386
-0.00936893
-0.00915356
-0.00914422
-0.0091695
-0.0091879
-0.00920882
-0.00923997
-0.00928978
-0.00935771
)
;
    }
}


// ************************************************************************* //
