/*--------------------------------*- C++ -*----------------------------------*\
| =========                 |                                                 |
| \\      /  F ield         | OpenFOAM: The Open Source CFD Toolbox           |
|  \\    /   O peration     | Version:  5.0                                   |
|   \\  /    A nd           | Web:      www.OpenFOAM.org                      |
|    \\/     M anipulation  |                                                 |
\*---------------------------------------------------------------------------*/
FoamFile
{
    version     2.0;
    format      ascii;
    class       volScalarField;
    location    "0.5";
    object      shearRate;
}
// * * * * * * * * * * * * * * * * * * * * * * * * * * * * * * * * * * * * * //

dimensions      [0 0 -1 0 0 0 0];

internalField   nonuniform List<scalar> 
50
(
1.06072e-13
1.61834e-13
7.69116e-14
5.51204e-14
1.3376e-13
2.00482e-13
2.64559e-13
8.79507e-14
5.83071e-14
2.18641e-13
2.2076e-13
2.64052e-13
7.92827e-14
6.34324e-14
1.96823e-13
2.43394e-13
2.62758e-13
9.94896e-14
7.93274e-14
1.96374e-13
2.2353e-13
9.20593e-14
7.18639e-14
7.1512e-14
3.05084e-14
1.8113e-13
4.73914e-14
5.48539e-14
6.49362e-14
2.77972e-14
1.02022e-13
3.47087e-13
1.07348e-13
1.66817e-13
3.25892e-13
5.62088e-14
3.47142e-13
1.04288e-13
1.20833e-13
3.47446e-13
6.8809e-14
5.64151e-13
1.30059e-13
7.27155e-14
5.42357e-13
1.57212e-13
5.85798e-13
1.38999e-13
5.73389e-14
4.98981e-13
)
;

boundaryField
{
    top
    {
        type            zeroGradient;
    }
    bottom
    {
        type            symmetryPlane;
    }
    inlet
    {
        type            zeroGradient;
    }
    outlet
    {
        type            zeroGradient;
    }
    frontAndBack
    {
        type            empty;
    }
    procBoundary0to1
    {
        type            processor;
        value           nonuniform List<scalar> 10(7.62012e-14 9.00335e-14 9.30971e-14 9.25347e-14 9.5495e-14 8.938e-14 1.56445e-13 1.50652e-13 7.68121e-14 4.15957e-14);
    }
}


// ************************************************************************* //
