/*--------------------------------*- C++ -*----------------------------------*\
| =========                 |                                                 |
| \\      /  F ield         | OpenFOAM: The Open Source CFD Toolbox           |
|  \\    /   O peration     | Version:  5.0                                   |
|   \\  /    A nd           | Web:      www.OpenFOAM.org                      |
|    \\/     M anipulation  |                                                 |
\*---------------------------------------------------------------------------*/
FoamFile
{
    version     2.0;
    format      ascii;
    class       volScalarField;
    location    "119";
    object      p;
}
// * * * * * * * * * * * * * * * * * * * * * * * * * * * * * * * * * * * * * //

dimensions      [0 2 -2 0 0 0 0];

internalField   nonuniform List<scalar> 
1568
(
4.52764e-12
1.49655e-12
6.76361e-12
-1.86183e-12
1.55326e-12
7.81076e-12
7.45441e-12
7.40875e-12
8.71064e-12
9.80931e-12
1.05817e-11
1.16076e-11
1.28041e-11
1.39674e-11
1.50143e-11
1.6108e-11
1.71547e-11
1.82711e-11
1.91578e-11
2.02635e-11
2.14993e-11
2.30673e-11
2.46909e-11
2.67013e-11
2.85266e-11
3.03802e-11
3.15877e-11
3.28062e-11
3.35909e-11
3.4635e-11
3.55464e-11
3.68952e-11
3.79104e-11
3.91246e-11
3.99096e-11
4.08933e-11
4.14515e-11
4.22676e-11
4.27557e-11
4.33554e-11
4.3687e-11
4.42146e-11
4.45151e-11
4.50233e-11
4.53895e-11
4.58263e-11
4.6106e-11
4.64364e-11
4.66659e-11
4.70874e-11
4.72078e-11
4.76075e-11
4.9412e-11
4.84365e-11
5.02533e-11
5.0089e-11
3.2721e-12
-1.36546e-10
6.80619e-11
3.67821e-11
-1.69426e-11
1.47449e-11
1.8788e-11
1.25551e-11
1.41522e-11
1.75397e-11
1.81837e-11
1.83684e-11
1.8733e-11
1.96171e-11
2.10548e-11
2.27429e-11
2.396e-11
2.60122e-11
2.7174e-11
2.84737e-11
2.87044e-11
3.00038e-11
2.95199e-11
3.00491e-11
2.97148e-11
3.17335e-11
3.16503e-11
3.33417e-11
3.24235e-11
3.49026e-11
3.41773e-11
3.49974e-11
3.30051e-11
3.41345e-11
3.31258e-11
3.51776e-11
3.4074e-11
3.56904e-11
3.50769e-11
3.62384e-11
3.60713e-11
3.79077e-11
3.74833e-11
3.80385e-11
3.74382e-11
3.81422e-11
3.81594e-11
3.90861e-11
3.93085e-11
4.0882e-11
4.10877e-11
4.17731e-11
4.57806e-11
3.09645e-11
5.34633e-11
4.9342e-11
1.29e-11
1.60562e-11
4.63043e-13
1.87934e-12
-1.74909e-11
4.32785e-12
7.4096e-12
3.48242e-12
3.2958e-12
2.89632e-12
6.22772e-12
8.62433e-12
8.85099e-12
9.86732e-12
1.12819e-11
1.15769e-11
1.27219e-11
1.37232e-11
1.51609e-11
1.62103e-11
1.80216e-11
1.98891e-11
2.24855e-11
2.40414e-11
2.64423e-11
2.75893e-11
2.91081e-11
3.02804e-11
3.2338e-11
3.3332e-11
3.53487e-11
3.82567e-11
4.28208e-11
4.46502e-11
4.59317e-11
4.63461e-11
4.78884e-11
4.78874e-11
4.87201e-11
4.90432e-11
4.84921e-11
4.70743e-11
4.80598e-11
4.85524e-11
4.95592e-11
4.99012e-11
5.05003e-11
5.12244e-11
5.10971e-11
4.94628e-11
5.08717e-11
4.8529e-11
5.55827e-11
5.07038e-11
4.7458e-11
4.75265e-11
8.72643e-12
3.36234e-11
3.23525e-11
-1.00983e-12
5.48634e-12
2.1583e-11
1.71947e-11
1.42789e-11
1.81309e-11
2.01205e-11
1.9775e-11
1.95489e-11
2.04192e-11
2.2224e-11
2.26778e-11
2.37073e-11
2.45039e-11
2.50584e-11
2.5265e-11
2.6545e-11
2.70671e-11
2.7883e-11
2.80975e-11
2.90195e-11
2.952e-11
3.07834e-11
3.12121e-11
3.23658e-11
3.27482e-11
3.34768e-11
3.30582e-11
3.25071e-11
3.15253e-11
3.12029e-11
3.14232e-11
3.22124e-11
3.26947e-11
3.3568e-11
3.39157e-11
3.54094e-11
3.6559e-11
3.80922e-11
3.87893e-11
3.95061e-11
3.96567e-11
3.98498e-11
3.98015e-11
4.06476e-11
4.14421e-11
4.18898e-11
4.24715e-11
4.31848e-11
4.74886e-11
3.67068e-11
5.23436e-11
4.72323e-11
6.08701e-12
-7.28011e-12
-7.96648e-14
-2.37653e-12
1.41006e-11
1.98992e-11
1.42669e-11
1.36327e-11
1.65821e-11
1.86684e-11
1.88496e-11
1.90347e-11
1.96632e-11
2.04918e-11
2.10988e-11
2.21085e-11
2.32992e-11
2.45134e-11
2.55433e-11
2.6431e-11
2.70976e-11
2.76484e-11
2.83069e-11
2.90753e-11
2.97689e-11
3.06051e-11
3.13519e-11
3.16066e-11
3.20042e-11
3.25466e-11
3.31484e-11
3.3345e-11
3.34688e-11
3.35049e-11
3.44451e-11
3.50918e-11
3.54606e-11
3.58322e-11
3.62769e-11
3.67091e-11
3.70987e-11
3.74267e-11
3.7676e-11
3.78874e-11
3.81677e-11
3.83697e-11
3.88461e-11
3.98029e-11
3.98588e-11
4.04734e-11
4.2457e-11
3.76222e-11
4.30812e-11
4.9195e-11
4.06749e-11
4.51062e-11
1.01197e-11
4.38317e-12
7.38e-12
1.21296e-11
1.63236e-11
1.16724e-11
9.62323e-12
1.22282e-11
1.33651e-11
1.37768e-11
1.4447e-11
1.55328e-11
1.65745e-11
1.76919e-11
1.86521e-11
1.9351e-11
2.00812e-11
2.09852e-11
2.19518e-11
2.27573e-11
2.36195e-11
2.47896e-11
2.58807e-11
2.69039e-11
2.77803e-11
2.86977e-11
2.97074e-11
3.07398e-11
3.17207e-11
3.29005e-11
3.39797e-11
3.5198e-11
3.65527e-11
3.76596e-11
3.83751e-11
3.89788e-11
3.94713e-11
4.0105e-11
4.05733e-11
4.09804e-11
4.12278e-11
4.15396e-11
4.1835e-11
4.2078e-11
4.2475e-11
4.27868e-11
4.30623e-11
4.38178e-11
4.38871e-11
4.34313e-11
4.47735e-11
4.47714e-11
4.5577e-11
3.51041e-11
4.72833e-11
4.49291e-11
1.17322e-11
1.74519e-11
1.55572e-11
1.57175e-11
1.56878e-11
1.2187e-11
1.25611e-11
1.57308e-11
1.68842e-11
1.65776e-11
1.71286e-11
1.80855e-11
1.88378e-11
1.95074e-11
2.02032e-11
2.09511e-11
2.17025e-11
2.23714e-11
2.31334e-11
2.39692e-11
2.48805e-11
2.57423e-11
2.66047e-11
2.74489e-11
2.83652e-11
2.92099e-11
3.01248e-11
3.09769e-11
3.18937e-11
3.26476e-11
3.31799e-11
3.3756e-11
3.46782e-11
3.54088e-11
3.58887e-11
3.63242e-11
3.7089e-11
3.77216e-11
3.82782e-11
3.8845e-11
3.94626e-11
3.99733e-11
4.05286e-11
4.11223e-11
4.16685e-11
4.18566e-11
4.21917e-11
4.30183e-11
4.24325e-11
4.2095e-11
4.51456e-11
4.14233e-11
4.34852e-11
4.84806e-11
4.37691e-11
4.30891e-11
1.24381e-11
1.78689e-11
1.33074e-11
1.25382e-11
1.57519e-11
1.52708e-11
1.57415e-11
1.76226e-11
1.85887e-11
1.82405e-11
1.88933e-11
1.97596e-11
2.04206e-11
2.0981e-11
2.15644e-11
2.23095e-11
2.30642e-11
2.37621e-11
2.44596e-11
2.52112e-11
2.59309e-11
2.66858e-11
2.73481e-11
2.80783e-11
2.88156e-11
2.95805e-11
3.02319e-11
3.09162e-11
3.16059e-11
3.21997e-11
3.2783e-11
3.33657e-11
3.37074e-11
3.41362e-11
3.47367e-11
3.53349e-11
3.58741e-11
3.64202e-11
3.68815e-11
3.74302e-11
3.79036e-11
3.82671e-11
3.86727e-11
3.91872e-11
3.94746e-11
3.95173e-11
3.98675e-11
4.0808e-11
4.06838e-11
4.03709e-11
4.19566e-11
4.13167e-11
4.3216e-11
3.5883e-11
4.40584e-11
4.22302e-11
1.39552e-11
1.68308e-11
1.31278e-11
1.33321e-11
1.7833e-11
1.68254e-11
1.67675e-11
1.79729e-11
1.8545e-11
1.87521e-11
1.93385e-11
1.96907e-11
2.03738e-11
2.1111e-11
2.16929e-11
2.23525e-11
2.30219e-11
2.37074e-11
2.4439e-11
2.51225e-11
2.57828e-11
2.65862e-11
2.72762e-11
2.79516e-11
2.86639e-11
2.93565e-11
3.00637e-11
3.07548e-11
3.14443e-11
3.20541e-11
3.28091e-11
3.35028e-11
3.4083e-11
3.46248e-11
3.52852e-11
3.58541e-11
3.63441e-11
3.67708e-11
3.72342e-11
3.77024e-11
3.81284e-11
3.84544e-11
3.87992e-11
3.91521e-11
3.93841e-11
3.95006e-11
3.99592e-11
4.07223e-11
4.03083e-11
4.00367e-11
4.21685e-11
3.9098e-11
4.10819e-11
4.26548e-11
4.02867e-11
4.09126e-11
1.61772e-11
1.9901e-11
1.51615e-11
1.56599e-11
2.00118e-11
1.78091e-11
1.7514e-11
1.8776e-11
1.88498e-11
1.90454e-11
1.97502e-11
2.03151e-11
2.08694e-11
2.13822e-11
2.1857e-11
2.25287e-11
2.31463e-11
2.3749e-11
2.43943e-11
2.51824e-11
2.5769e-11
2.63515e-11
2.70393e-11
2.77765e-11
2.84381e-11
2.91505e-11
2.99207e-11
3.06871e-11
3.13709e-11
3.20907e-11
3.27336e-11
3.33881e-11
3.39837e-11
3.46382e-11
3.52472e-11
3.57723e-11
3.62999e-11
3.68366e-11
3.73194e-11
3.7779e-11
3.81845e-11
3.85506e-11
3.88884e-11
3.93492e-11
3.96831e-11
3.9772e-11
4.00915e-11
4.08723e-11
4.05461e-11
4.0138e-11
4.17227e-11
3.96314e-11
4.22431e-11
3.83052e-11
4.0531e-11
4.02177e-11
1.80389e-11
2.22425e-11
1.67855e-11
1.76875e-11
2.15973e-11
1.87921e-11
1.82646e-11
1.97372e-11
2.01056e-11
2.00581e-11
2.03542e-11
2.11759e-11
2.16285e-11
2.19406e-11
2.24519e-11
2.30414e-11
2.36225e-11
2.41915e-11
2.4772e-11
2.53052e-11
2.59928e-11
2.66055e-11
2.73105e-11
2.79039e-11
2.85904e-11
2.92401e-11
2.99413e-11
3.05645e-11
3.12487e-11
3.19092e-11
3.24797e-11
3.30754e-11
3.36916e-11
3.42828e-11
3.48568e-11
3.53711e-11
3.58901e-11
3.63887e-11
3.6874e-11
3.73327e-11
3.77644e-11
3.81182e-11
3.84772e-11
3.89421e-11
3.92934e-11
3.92809e-11
3.96368e-11
4.04376e-11
3.99826e-11
3.95209e-11
4.14927e-11
3.92064e-11
4.00873e-11
3.94735e-11
4.01357e-11
3.92924e-11
1.97495e-11
2.42178e-11
1.82491e-11
1.87738e-11
2.25528e-11
1.98994e-11
1.93791e-11
2.07781e-11
2.11194e-11
2.1064e-11
2.13142e-11
2.18229e-11
2.21238e-11
2.25426e-11
2.31889e-11
2.3539e-11
2.39484e-11
2.45103e-11
2.51231e-11
2.55397e-11
2.62044e-11
2.69062e-11
2.75473e-11
2.81451e-11
2.89049e-11
2.95508e-11
3.00215e-11
3.03875e-11
3.09177e-11
3.15583e-11
3.22201e-11
3.28692e-11
3.34491e-11
3.40085e-11
3.45345e-11
3.50958e-11
3.56007e-11
3.60841e-11
3.65297e-11
3.69753e-11
3.73776e-11
3.77719e-11
3.81312e-11
3.85518e-11
3.8868e-11
3.88079e-11
3.90945e-11
3.99036e-11
3.9375e-11
3.90061e-11
4.07183e-11
3.79881e-11
4.03929e-11
3.94546e-11
3.7428e-11
3.82806e-11
2.13096e-11
2.5143e-11
1.96889e-11
1.99718e-11
2.34042e-11
2.09868e-11
2.04532e-11
2.16937e-11
2.18536e-11
2.17504e-11
2.20269e-11
2.24256e-11
2.27592e-11
2.31025e-11
2.35418e-11
2.39175e-11
2.43782e-11
2.49189e-11
2.5444e-11
2.59418e-11
2.64232e-11
2.69369e-11
2.72601e-11
2.7565e-11
2.80713e-11
2.88692e-11
2.97935e-11
3.0784e-11
3.16132e-11
3.2075e-11
3.24191e-11
3.28539e-11
3.33601e-11
3.3944e-11
3.44763e-11
3.4874e-11
3.54184e-11
3.59157e-11
3.63564e-11
3.67965e-11
3.71954e-11
3.752e-11
3.7831e-11
3.81851e-11
3.8544e-11
3.85631e-11
3.87846e-11
3.95772e-11
3.91604e-11
3.84375e-11
4.03456e-11
3.89228e-11
3.8802e-11
3.55507e-11
4.0064e-11
3.78476e-11
2.28367e-11
2.63815e-11
2.08602e-11
2.11983e-11
2.44222e-11
2.20159e-11
2.13521e-11
2.24722e-11
2.2565e-11
2.2331e-11
2.25065e-11
2.28462e-11
2.31999e-11
2.34453e-11
2.36839e-11
2.41306e-11
2.46456e-11
2.50471e-11
2.54664e-11
2.60116e-11
2.65409e-11
2.71429e-11
2.78314e-11
2.86671e-11
2.92885e-11
2.97253e-11
2.9865e-11
3.00231e-11
3.05038e-11
3.12717e-11
3.19975e-11
3.2659e-11
3.31863e-11
3.3714e-11
3.43299e-11
3.48043e-11
3.53493e-11
3.57892e-11
3.62146e-11
3.66926e-11
3.70994e-11
3.74245e-11
3.77741e-11
3.81184e-11
3.83866e-11
3.84238e-11
3.86466e-11
3.93737e-11
3.88818e-11
3.84863e-11
3.99923e-11
3.66371e-11
4.00197e-11
3.98898e-11
3.60574e-11
3.68706e-11
2.40761e-11
2.73993e-11
2.20007e-11
2.22683e-11
2.54628e-11
2.29489e-11
2.2176e-11
2.32473e-11
2.33018e-11
2.29896e-11
2.31186e-11
2.34341e-11
2.36765e-11
2.3913e-11
2.41901e-11
2.45616e-11
2.49102e-11
2.52367e-11
2.56757e-11
2.61869e-11
2.6666e-11
2.71767e-11
2.78387e-11
2.8597e-11
2.91432e-11
2.95205e-11
2.98383e-11
3.00558e-11
3.04659e-11
3.12099e-11
3.1907e-11
3.25345e-11
3.31024e-11
3.3582e-11
3.41089e-11
3.47295e-11
3.51719e-11
3.55982e-11
3.60565e-11
3.64886e-11
3.68736e-11
3.72042e-11
3.7586e-11
3.80086e-11
3.82755e-11
3.82144e-11
3.84321e-11
3.92044e-11
3.88399e-11
3.7875e-11
3.92994e-11
3.91638e-11
3.90256e-11
3.13166e-11
4.03715e-11
3.68758e-11
2.53355e-11
2.96761e-11
2.31922e-11
2.30607e-11
2.64486e-11
2.37765e-11
2.29495e-11
2.3967e-11
2.39626e-11
2.36256e-11
2.37473e-11
2.40082e-11
2.41743e-11
2.43716e-11
2.46833e-11
2.49915e-11
2.52991e-11
2.56753e-11
2.60784e-11
2.64219e-11
2.68208e-11
2.72542e-11
2.7491e-11
2.76396e-11
2.79693e-11
2.86144e-11
2.97075e-11
3.07612e-11
3.15217e-11
3.18851e-11
3.209e-11
3.2466e-11
3.30591e-11
3.35722e-11
3.40047e-11
3.45172e-11
3.49374e-11
3.54155e-11
3.59132e-11
3.63032e-11
3.66897e-11
3.70037e-11
3.72828e-11
3.76827e-11
3.79933e-11
3.79496e-11
3.81781e-11
3.89679e-11
3.85333e-11
3.80822e-11
3.93987e-11
3.61155e-11
3.98351e-11
3.98755e-11
3.59706e-11
3.60139e-11
2.63194e-11
2.96157e-11
2.37053e-11
2.3927e-11
2.73738e-11
2.44714e-11
2.36386e-11
2.46602e-11
2.46002e-11
2.42111e-11
2.4227e-11
2.44287e-11
2.45639e-11
2.47139e-11
2.49023e-11
2.51533e-11
2.5444e-11
2.57928e-11
2.61347e-11
2.65077e-11
2.69056e-11
2.73847e-11
2.7882e-11
2.84884e-11
2.90314e-11
2.94895e-11
2.98364e-11
3.01548e-11
3.05935e-11
3.1152e-11
3.16939e-11
3.23156e-11
3.28496e-11
3.33613e-11
3.3839e-11
3.43781e-11
3.48313e-11
3.52998e-11
3.57296e-11
3.61877e-11
3.65824e-11
3.69363e-11
3.72249e-11
3.76214e-11
3.7908e-11
3.78838e-11
3.80856e-11
3.89071e-11
3.8534e-11
3.74263e-11
3.89439e-11
3.94638e-11
3.81177e-11
2.95204e-11
4.14648e-11
3.64583e-11
2.73545e-11
3.13666e-11
2.51522e-11
2.47053e-11
2.81916e-11
2.51603e-11
2.42394e-11
2.52126e-11
2.51112e-11
2.4667e-11
2.46676e-11
2.48271e-11
2.4927e-11
2.50106e-11
2.51852e-11
2.54139e-11
2.56717e-11
2.59357e-11
2.62714e-11
2.66217e-11
2.70113e-11
2.73773e-11
2.78234e-11
2.82788e-11
2.87826e-11
2.923e-11
2.97075e-11
3.01066e-11
3.06436e-11
3.11653e-11
3.17449e-11
3.2268e-11
3.2817e-11
3.32734e-11
3.38157e-11
3.42889e-11
3.47975e-11
3.52335e-11
3.57098e-11
3.61082e-11
3.6519e-11
3.68465e-11
3.72158e-11
3.76094e-11
3.7919e-11
3.78715e-11
3.81111e-11
3.88629e-11
3.83857e-11
3.80229e-11
3.95502e-11
3.57057e-11
3.96883e-11
4.11372e-11
3.47643e-11
3.57634e-11
2.82243e-11
3.11112e-11
2.58934e-11
2.51033e-11
2.88532e-11
2.57948e-11
2.47753e-11
2.56948e-11
2.55606e-11
2.50961e-11
2.50403e-11
2.51486e-11
2.52015e-11
2.52834e-11
2.54281e-11
2.56457e-11
2.58403e-11
2.60974e-11
2.63611e-11
2.66791e-11
2.69956e-11
2.73832e-11
2.77516e-11
2.81507e-11
2.85588e-11
2.90463e-11
2.95367e-11
3.00895e-11
3.06307e-11
3.11994e-11
3.16921e-11
3.22228e-11
3.27531e-11
3.32683e-11
3.37815e-11
3.4283e-11
3.47587e-11
3.52193e-11
3.56768e-11
3.61137e-11
3.65269e-11
3.6873e-11
3.72068e-11
3.75857e-11
3.79122e-11
3.78414e-11
3.80542e-11
3.88444e-11
3.85732e-11
3.74269e-11
3.88839e-11
3.96954e-11
3.82898e-11
2.82029e-11
4.18587e-11
3.67227e-11
2.89738e-11
3.17339e-11
2.75004e-11
2.554e-11
2.94052e-11
2.65608e-11
2.5491e-11
2.63513e-11
2.62001e-11
2.56774e-11
2.55408e-11
2.5632e-11
2.56723e-11
2.57542e-11
2.58122e-11
2.59456e-11
2.61084e-11
2.63818e-11
2.6581e-11
2.69045e-11
2.71572e-11
2.75994e-11
2.78392e-11
2.83089e-11
2.86069e-11
2.9186e-11
2.95389e-11
3.01564e-11
3.04714e-11
3.10882e-11
3.13847e-11
3.20133e-11
3.23311e-11
3.29968e-11
3.33369e-11
3.40129e-11
3.42908e-11
3.49334e-11
3.52171e-11
3.58282e-11
3.60496e-11
3.65361e-11
3.66972e-11
3.73438e-11
3.75838e-11
3.77163e-11
3.78728e-11
3.88781e-11
3.82704e-11
3.81586e-11
3.96194e-11
3.52288e-11
4.04747e-11
4.35055e-11
3.51531e-11
3.61496e-11
2.95566e-11
3.12973e-11
2.85331e-11
2.58995e-11
3.02188e-11
2.74602e-11
2.62847e-11
2.70214e-11
2.69117e-11
2.63822e-11
2.63192e-11
2.62585e-11
2.63325e-11
2.61769e-11
2.64752e-11
2.64391e-11
2.68177e-11
2.66984e-11
2.72072e-11
2.71656e-11
2.77459e-11
2.77128e-11
2.83943e-11
2.84283e-11
2.91692e-11
2.91203e-11
2.99037e-11
2.9793e-11
3.06268e-11
3.06232e-11
3.14801e-11
3.14097e-11
3.23036e-11
3.22999e-11
3.32946e-11
3.33054e-11
3.42699e-11
3.42422e-11
3.51823e-11
3.51376e-11
3.6019e-11
3.59491e-11
3.66872e-11
3.68172e-11
3.75027e-11
3.71588e-11
3.78416e-11
3.84464e-11
3.84292e-11
3.706e-11
3.88547e-11
4.14551e-11
3.95253e-11
2.49673e-11
4.43825e-11
3.76499e-11
2.99504e-11
3.11511e-11
2.94308e-11
2.49079e-11
2.89373e-11
2.65216e-11
2.5352e-11
2.60953e-11
2.588e-11
2.54355e-11
2.52429e-11
2.53321e-11
2.53181e-11
2.52329e-11
2.51094e-11
2.50623e-11
2.5245e-11
2.54266e-11
2.56516e-11
2.5827e-11
2.6157e-11
2.6419e-11
2.69219e-11
2.71667e-11
2.78305e-11
2.81368e-11
2.89767e-11
2.93173e-11
3.02859e-11
3.06494e-11
3.15796e-11
3.19221e-11
3.29714e-11
3.30736e-11
3.39832e-11
3.42172e-11
3.52759e-11
3.54433e-11
3.64343e-11
3.66316e-11
3.76941e-11
3.79891e-11
3.88244e-11
3.89118e-11
3.94505e-11
3.90916e-11
3.98658e-11
4.04147e-11
3.99717e-11
3.94734e-11
4.18941e-11
3.62041e-11
4.09113e-11
4.60143e-11
3.83845e-11
3.75716e-11
3.01511e-11
3.14645e-11
2.90328e-11
2.65046e-11
2.94659e-11
2.6684e-11
2.56332e-11
2.64581e-11
2.56912e-11
2.53981e-11
2.48908e-11
2.52655e-11
2.44368e-11
2.50686e-11
2.42971e-11
2.54231e-11
2.43161e-11
2.56703e-11
2.4519e-11
2.62938e-11
2.49429e-11
2.70784e-11
2.54855e-11
2.79792e-11
2.63185e-11
2.91851e-11
2.74282e-11
3.05684e-11
2.86934e-11
3.20422e-11
3.00659e-11
3.3617e-11
3.15923e-11
3.5176e-11
3.28557e-11
3.6332e-11
3.39224e-11
3.73904e-11
3.52016e-11
3.85285e-11
3.62758e-11
3.92887e-11
3.72903e-11
4.02923e-11
3.88318e-11
4.08788e-11
3.89736e-11
4.1338e-11
3.96421e-11
4.02589e-11
3.96204e-11
4.19771e-11
4.27939e-11
3.05122e-11
4.33077e-11
3.92329e-11
3.06161e-11
3.37045e-11
2.86393e-11
2.986e-11
3.30712e-11
3.01251e-11
2.99141e-11
3.05762e-11
3.04418e-11
2.97243e-11
2.99696e-11
2.95729e-11
3.00909e-11
2.96012e-11
3.02595e-11
2.96434e-11
3.04771e-11
2.94493e-11
3.05691e-11
2.93941e-11
3.0909e-11
2.96219e-11
3.12581e-11
2.98447e-11
3.14976e-11
2.98903e-11
3.14797e-11
2.96535e-11
3.14363e-11
2.94158e-11
3.09606e-11
2.86934e-11
3.03345e-11
2.85974e-11
3.08853e-11
2.94859e-11
3.17719e-11
3.04343e-11
3.24984e-11
3.16192e-11
3.36254e-11
3.23733e-11
3.39087e-11
3.30279e-11
3.45224e-11
3.35434e-11
3.50499e-11
3.56608e-11
3.6205e-11
3.53474e-11
3.89698e-11
3.5682e-11
3.50341e-11
4.54891e-11
3.54428e-11
3.89856e-11
3.086e-11
3.14961e-11
2.40314e-11
2.64064e-11
2.9921e-11
2.72667e-11
2.69077e-11
2.76912e-11
2.79913e-11
2.71696e-11
2.73285e-11
2.67169e-11
2.73895e-11
2.61898e-11
2.67158e-11
2.52974e-11
2.67379e-11
2.5057e-11
2.69817e-11
2.50534e-11
2.74866e-11
2.53054e-11
2.82936e-11
2.57347e-11
2.91954e-11
2.64131e-11
3.05145e-11
2.74524e-11
3.15935e-11
2.78267e-11
3.14368e-11
2.66996e-11
3.0357e-11
2.65068e-11
3.17754e-11
2.88977e-11
3.43315e-11
3.08661e-11
3.68692e-11
3.44455e-11
3.98463e-11
3.70603e-11
4.14517e-11
3.82797e-11
4.18516e-11
3.90148e-11
4.3022e-11
4.11617e-11
4.26438e-11
4.04176e-11
4.52284e-11
4.3394e-11
4.48034e-11
4.21665e-11
4.43008e-11
4.03821e-11
3.17272e-11
3.65326e-11
3.34252e-11
3.07069e-11
3.11269e-11
2.7171e-11
2.49452e-11
2.55762e-11
2.43519e-11
2.43639e-11
2.30008e-11
2.40113e-11
2.24605e-11
2.42383e-11
2.22086e-11
2.4778e-11
2.22438e-11
2.56719e-11
2.22684e-11
2.65255e-11
2.21588e-11
2.70966e-11
2.20656e-11
2.83779e-11
2.28047e-11
2.95802e-11
2.34942e-11
3.09423e-11
2.46202e-11
3.36543e-11
2.86316e-11
4.01119e-11
3.54764e-11
4.50654e-11
3.70164e-11
4.47132e-11
3.65564e-11
4.42195e-11
3.67635e-11
4.18092e-11
3.37037e-11
4.07708e-11
3.52992e-11
4.17651e-11
3.69231e-11
4.19774e-11
3.77402e-11
4.20099e-11
3.79243e-11
3.99501e-11
3.81e-11
3.67034e-11
3.65424e-11
3.64612e-11
3.815e-11
4.02661e-11
3.17065e-11
2.8727e-11
3.2642e-11
2.81521e-11
2.98195e-11
3.00839e-11
3.04385e-11
3.01614e-11
2.98015e-11
2.92803e-11
2.95766e-11
2.90868e-11
2.91927e-11
2.866e-11
2.92676e-11
2.8513e-11
2.88905e-11
2.79921e-11
2.86285e-11
2.78213e-11
2.89821e-11
2.83213e-11
2.94476e-11
2.85807e-11
2.97507e-11
2.86814e-11
3.0332e-11
2.91788e-11
3.08016e-11
2.94221e-11
3.04469e-11
2.78448e-11
2.84452e-11
2.69867e-11
2.90067e-11
2.84118e-11
3.07663e-11
3.03022e-11
3.2126e-11
3.25163e-11
3.5065e-11
3.49287e-11
3.60813e-11
3.59196e-11
3.71281e-11
3.69374e-11
3.80485e-11
3.85857e-11
3.877e-11
3.88548e-11
4.16585e-11
4.14996e-11
4.11225e-11
3.74178e-11
4.80456e-11
4.18161e-11
3.21449e-11
3.10551e-11
3.04638e-11
2.93943e-11
2.89407e-11
2.83182e-11
2.77937e-11
2.73488e-11
2.70086e-11
2.6652e-11
2.64374e-11
2.61398e-11
2.60046e-11
2.57541e-11
2.57197e-11
2.54784e-11
2.54747e-11
2.52548e-11
2.54391e-11
2.53357e-11
2.56021e-11
2.55499e-11
2.60474e-11
2.61483e-11
2.67499e-11
2.68901e-11
2.7634e-11
2.78514e-11
2.87501e-11
2.91408e-11
3.02845e-11
3.07596e-11
3.1869e-11
3.23574e-11
3.34855e-11
3.3914e-11
3.49232e-11
3.5261e-11
3.61492e-11
3.65558e-11
3.75542e-11
3.81148e-11
3.9188e-11
3.97289e-11
4.04983e-11
4.06723e-11
4.10752e-11
4.11679e-11
4.13982e-11
4.12711e-11
4.1451e-11
4.16119e-11
4.19528e-11
4.15826e-11
4.23057e-11
4.21398e-11
)
;

boundaryField
{
    top
    {
        type            zeroGradient;
    }
    bottom
    {
        type            zeroGradient;
    }
    rotatingWall
    {
        type            zeroGradient;
    }
    wall
    {
        type            zeroGradient;
    }
    frontAndBack
    {
        type            empty;
    }
}


// ************************************************************************* //
