/*--------------------------------*- C++ -*----------------------------------*\
| =========                 |                                                 |
| \\      /  F ield         | OpenFOAM: The Open Source CFD Toolbox           |
|  \\    /   O peration     | Version:  5.0                                   |
|   \\  /    A nd           | Web:      www.OpenFOAM.org                      |
|    \\/     M anipulation  |                                                 |
\*---------------------------------------------------------------------------*/
FoamFile
{
    version     2.0;
    format      ascii;
    class       volScalarField;
    location    "297";
    object      p;
}
// * * * * * * * * * * * * * * * * * * * * * * * * * * * * * * * * * * * * * //

dimensions      [0 2 -2 0 0 0 0];

internalField   nonuniform List<scalar> 
1568
(
5.53618e-16
2.96376e-15
5.41916e-15
6.4091e-15
7.55279e-15
8.73959e-15
9.43637e-15
1.01632e-14
1.08742e-14
1.14951e-14
1.20815e-14
1.26672e-14
1.32487e-14
1.38161e-14
1.43854e-14
1.4966e-14
1.55526e-14
1.61526e-14
1.67624e-14
1.73906e-14
1.80274e-14
1.86829e-14
1.932e-14
1.9802e-14
2.01618e-14
2.06454e-14
2.14173e-14
2.25505e-14
2.38156e-14
2.4946e-14
2.57149e-14
2.62048e-14
2.65607e-14
2.70454e-14
2.76783e-14
2.83391e-14
2.89646e-14
2.96018e-14
3.02088e-14
3.08102e-14
3.13928e-14
3.19772e-14
3.25398e-14
3.31135e-14
3.36826e-14
3.42676e-14
3.48643e-14
3.55005e-14
3.61722e-14
3.69032e-14
3.77349e-14
3.87033e-14
3.98234e-14
4.10937e-14
4.32183e-14
4.55346e-14
1.89822e-15
4.57651e-16
9.90259e-15
7.80648e-15
6.14106e-15
1.01346e-14
1.02075e-14
1.04719e-14
1.1586e-14
1.22689e-14
1.27228e-14
1.32787e-14
1.3885e-14
1.44107e-14
1.49881e-14
1.55618e-14
1.61146e-14
1.66995e-14
1.72839e-14
1.78843e-14
1.84677e-14
1.91061e-14
1.97221e-14
2.04472e-14
2.11094e-14
2.18264e-14
2.24597e-14
2.30348e-14
2.33051e-14
2.39864e-14
2.46127e-14
2.52996e-14
2.58471e-14
2.66263e-14
2.72149e-14
2.79306e-14
2.84264e-14
2.91105e-14
2.96271e-14
3.02154e-14
3.07742e-14
3.14293e-14
3.19328e-14
3.25018e-14
3.30283e-14
3.36433e-14
3.42246e-14
3.48823e-14
3.55135e-14
3.63402e-14
3.72948e-14
3.81406e-14
3.94002e-14
3.99712e-14
4.30882e-14
4.43977e-14
3.84598e-15
7.01116e-15
2.7165e-15
7.29957e-15
9.1077e-15
1.0101e-14
1.00973e-14
1.13087e-14
1.20509e-14
1.21732e-14
1.31264e-14
1.38907e-14
1.42266e-14
1.47741e-14
1.53687e-14
1.58044e-14
1.63544e-14
1.68979e-14
1.74668e-14
1.79843e-14
1.85604e-14
1.91421e-14
1.9801e-14
2.03726e-14
2.09951e-14
2.1469e-14
2.21057e-14
2.27962e-14
2.3568e-14
2.41617e-14
2.47963e-14
2.5423e-14
2.62507e-14
2.68157e-14
2.73769e-14
2.78771e-14
2.85393e-14
2.898e-14
2.95606e-14
3.01117e-14
3.0537e-14
3.08763e-14
3.15086e-14
3.2019e-14
3.2613e-14
3.31763e-14
3.37766e-14
3.44133e-14
3.51254e-14
3.58595e-14
3.65287e-14
3.69956e-14
3.95089e-14
3.98433e-14
4.13738e-14
4.29057e-14
4.95899e-15
7.08439e-15
9.60646e-15
8.78828e-15
1.07965e-14
1.14332e-14
1.14897e-14
1.26665e-14
1.36278e-14
1.40868e-14
1.45182e-14
1.49828e-14
1.55491e-14
1.61556e-14
1.65629e-14
1.71091e-14
1.76219e-14
1.80702e-14
1.84954e-14
1.90587e-14
1.95265e-14
1.99964e-14
2.04149e-14
2.09059e-14
2.133e-14
2.18503e-14
2.23564e-14
2.29483e-14
2.35015e-14
2.4106e-14
2.46021e-14
2.49442e-14
2.52553e-14
2.56738e-14
2.62081e-14
2.66953e-14
2.71913e-14
2.77249e-14
2.81682e-14
2.87022e-14
2.92853e-14
2.99039e-14
3.03813e-14
3.08688e-14
3.13802e-14
3.19199e-14
3.24213e-14
3.31134e-14
3.37973e-14
3.43507e-14
3.55848e-14
3.65922e-14
3.70247e-14
3.74967e-14
4.07544e-14
4.15372e-14
6.34575e-15
6.04901e-15
9.17825e-15
9.56575e-15
1.09745e-14
1.15057e-14
1.22414e-14
1.31762e-14
1.36328e-14
1.42017e-14
1.47852e-14
1.53283e-14
1.58147e-14
1.62411e-14
1.66836e-14
1.71781e-14
1.76353e-14
1.81172e-14
1.85949e-14
1.9062e-14
1.95178e-14
1.9993e-14
2.04806e-14
2.09856e-14
2.14493e-14
2.19551e-14
2.24502e-14
2.2918e-14
2.33921e-14
2.39017e-14
2.44322e-14
2.49661e-14
2.54615e-14
2.59526e-14
2.64814e-14
2.6954e-14
2.7371e-14
2.7848e-14
2.83044e-14
2.87321e-14
2.91474e-14
2.95805e-14
3.00127e-14
3.04981e-14
3.09873e-14
3.15207e-14
3.21055e-14
3.26445e-14
3.31793e-14
3.41394e-14
3.48365e-14
3.47545e-14
3.69306e-14
3.82225e-14
3.8624e-14
3.99276e-14
8.15926e-15
9.35211e-15
1.05781e-14
1.14985e-14
1.18671e-14
1.23521e-14
1.35093e-14
1.42188e-14
1.44409e-14
1.50068e-14
1.56262e-14
1.6106e-14
1.65256e-14
1.69923e-14
1.74686e-14
1.7856e-14
1.8236e-14
1.86498e-14
1.9078e-14
1.94608e-14
1.98769e-14
2.0326e-14
2.0761e-14
2.11848e-14
2.16212e-14
2.20366e-14
2.24901e-14
2.29613e-14
2.34188e-14
2.38674e-14
2.42983e-14
2.47381e-14
2.52155e-14
2.56491e-14
2.60369e-14
2.64505e-14
2.68755e-14
2.72943e-14
2.77202e-14
2.81452e-14
2.85527e-14
2.89734e-14
2.9425e-14
2.98476e-14
3.03183e-14
3.0797e-14
3.12339e-14
3.18667e-14
3.25137e-14
3.27652e-14
3.37327e-14
3.49942e-14
3.52103e-14
3.50302e-14
3.7761e-14
3.84093e-14
9.7706e-15
1.08523e-14
1.17423e-14
1.23446e-14
1.31464e-14
1.39707e-14
1.46421e-14
1.50831e-14
1.56111e-14
1.61695e-14
1.66264e-14
1.70013e-14
1.73935e-14
1.78046e-14
1.81853e-14
1.8564e-14
1.89523e-14
1.93159e-14
1.96748e-14
2.00559e-14
2.04318e-14
2.07793e-14
2.11312e-14
2.14971e-14
2.18755e-14
2.22494e-14
2.26317e-14
2.30102e-14
2.33986e-14
2.3785e-14
2.41315e-14
2.44671e-14
2.48295e-14
2.51868e-14
2.55356e-14
2.59026e-14
2.62972e-14
2.66562e-14
2.70137e-14
2.73945e-14
2.77906e-14
2.81823e-14
2.85716e-14
2.89641e-14
2.93886e-14
2.98212e-14
3.02654e-14
3.07749e-14
3.12422e-14
3.19236e-14
3.27125e-14
3.26208e-14
3.41183e-14
3.54109e-14
3.58288e-14
3.66755e-14
1.14013e-14
1.19698e-14
1.29003e-14
1.35595e-14
1.44739e-14
1.50498e-14
1.54268e-14
1.58646e-14
1.64479e-14
1.68557e-14
1.72502e-14
1.76413e-14
1.80254e-14
1.83758e-14
1.87039e-14
1.90442e-14
1.9384e-14
1.97091e-14
2.00338e-14
2.03625e-14
2.06826e-14
2.10108e-14
2.13385e-14
2.16705e-14
2.19984e-14
2.23381e-14
2.26691e-14
2.30034e-14
2.33483e-14
2.36867e-14
2.40472e-14
2.44032e-14
2.47151e-14
2.50415e-14
2.53972e-14
2.57268e-14
2.60366e-14
2.63595e-14
2.66778e-14
2.70005e-14
2.73203e-14
2.76384e-14
2.79698e-14
2.83226e-14
2.86915e-14
2.90718e-14
2.9441e-14
2.99387e-14
3.04483e-14
3.07657e-14
3.14378e-14
3.2245e-14
3.27147e-14
3.25015e-14
3.44485e-14
3.50081e-14
1.31495e-14
1.37027e-14
1.47079e-14
1.51879e-14
1.57572e-14
1.60269e-14
1.65482e-14
1.70505e-14
1.74361e-14
1.78041e-14
1.81536e-14
1.84458e-14
1.87862e-14
1.91099e-14
1.93962e-14
1.9678e-14
1.99522e-14
2.02352e-14
2.05164e-14
2.07801e-14
2.10525e-14
2.13545e-14
2.16308e-14
2.19067e-14
2.21897e-14
2.24724e-14
2.27546e-14
2.30435e-14
2.33302e-14
2.36078e-14
2.39008e-14
2.4192e-14
2.44797e-14
2.476e-14
2.50389e-14
2.53104e-14
2.55804e-14
2.5856e-14
2.61375e-14
2.64157e-14
2.66933e-14
2.69857e-14
2.72862e-14
2.75792e-14
2.78919e-14
2.82393e-14
2.85943e-14
2.89693e-14
2.93068e-14
2.97909e-14
3.04503e-14
3.0395e-14
3.13804e-14
3.21761e-14
3.26152e-14
3.32161e-14
1.49409e-14
1.54636e-14
1.6142e-14
1.64981e-14
1.70177e-14
1.72763e-14
1.78381e-14
1.82222e-14
1.84309e-14
1.87692e-14
1.9099e-14
1.93541e-14
1.96127e-14
1.98663e-14
2.0095e-14
2.03442e-14
2.05771e-14
2.08008e-14
2.10226e-14
2.12705e-14
2.14875e-14
2.16979e-14
2.1925e-14
2.21595e-14
2.23813e-14
2.26084e-14
2.28445e-14
2.30809e-14
2.33078e-14
2.35426e-14
2.37592e-14
2.39767e-14
2.42025e-14
2.44328e-14
2.46528e-14
2.48696e-14
2.51033e-14
2.53363e-14
2.55623e-14
2.57878e-14
2.60218e-14
2.62658e-14
2.65049e-14
2.67552e-14
2.70286e-14
2.73049e-14
2.75604e-14
2.79185e-14
2.82782e-14
2.85054e-14
2.90194e-14
2.94054e-14
3.00064e-14
2.99134e-14
3.10419e-14
3.14528e-14
1.67378e-14
1.71314e-14
1.75545e-14
1.79473e-14
1.8407e-14
1.85849e-14
1.89793e-14
1.92453e-14
1.94645e-14
1.97306e-14
1.99444e-14
2.01812e-14
2.03878e-14
2.05714e-14
2.07616e-14
2.09555e-14
2.11463e-14
2.13237e-14
2.14986e-14
2.16703e-14
2.18571e-14
2.20231e-14
2.22018e-14
2.23673e-14
2.25412e-14
2.27188e-14
2.29165e-14
2.31036e-14
2.32909e-14
2.34732e-14
2.3641e-14
2.38178e-14
2.39977e-14
2.41727e-14
2.43501e-14
2.45272e-14
2.47027e-14
2.48761e-14
2.50512e-14
2.52309e-14
2.54131e-14
2.55943e-14
2.57802e-14
2.59776e-14
2.61893e-14
2.63947e-14
2.66228e-14
2.69114e-14
2.71064e-14
2.73537e-14
2.79338e-14
2.7891e-14
2.82941e-14
2.88033e-14
2.92979e-14
2.96234e-14
1.8574e-14
1.88841e-14
1.91754e-14
1.94469e-14
1.98031e-14
1.98789e-14
2.01651e-14
2.03545e-14
2.05089e-14
2.07133e-14
2.08811e-14
2.10137e-14
2.11478e-14
2.13135e-14
2.14747e-14
2.15858e-14
2.17073e-14
2.1842e-14
2.19824e-14
2.20916e-14
2.22262e-14
2.23583e-14
2.24945e-14
2.26283e-14
2.27789e-14
2.29019e-14
2.30052e-14
2.30958e-14
2.32132e-14
2.33511e-14
2.35018e-14
2.36418e-14
2.37653e-14
2.38871e-14
2.40129e-14
2.41524e-14
2.42729e-14
2.43942e-14
2.45235e-14
2.46526e-14
2.47783e-14
2.49175e-14
2.50576e-14
2.52015e-14
2.53549e-14
2.55018e-14
2.56489e-14
2.5844e-14
2.60604e-14
2.62048e-14
2.64267e-14
2.65382e-14
2.71689e-14
2.70978e-14
2.74582e-14
2.77866e-14
2.04162e-14
2.06273e-14
2.0809e-14
2.09554e-14
2.11744e-14
2.11781e-14
2.13967e-14
2.15226e-14
2.15836e-14
2.16908e-14
2.18849e-14
2.19661e-14
2.197e-14
2.20921e-14
2.21724e-14
2.22407e-14
2.23207e-14
2.24015e-14
2.24782e-14
2.25535e-14
2.2619e-14
2.26995e-14
2.27593e-14
2.28154e-14
2.28768e-14
2.2962e-14
2.30622e-14
2.31814e-14
2.32732e-14
2.33244e-14
2.3379e-14
2.34493e-14
2.35235e-14
2.36063e-14
2.36799e-14
2.37386e-14
2.38194e-14
2.38993e-14
2.39734e-14
2.40476e-14
2.41227e-14
2.42044e-14
2.42835e-14
2.43744e-14
2.44148e-14
2.45155e-14
2.46501e-14
2.48127e-14
2.48548e-14
2.48504e-14
2.53671e-14
2.52935e-14
2.52033e-14
2.53678e-14
2.59097e-14
2.59509e-14
2.22766e-14
2.23665e-14
2.23812e-14
2.24661e-14
2.25772e-14
2.25006e-14
2.26265e-14
2.26758e-14
2.26865e-14
2.27245e-14
2.27795e-14
2.27885e-14
2.28032e-14
2.28707e-14
2.286e-14
2.28858e-14
2.29239e-14
2.29401e-14
2.29529e-14
2.29861e-14
2.30127e-14
2.30363e-14
2.3064e-14
2.31104e-14
2.31328e-14
2.31544e-14
2.31523e-14
2.31521e-14
2.31709e-14
2.321e-14
2.3241e-14
2.32716e-14
2.3289e-14
2.33095e-14
2.33447e-14
2.33574e-14
2.33891e-14
2.34095e-14
2.34272e-14
2.34568e-14
2.34808e-14
2.34946e-14
2.35069e-14
2.35566e-14
2.3573e-14
2.36056e-14
2.36204e-14
2.36533e-14
2.37362e-14
2.382e-14
2.37954e-14
2.34939e-14
2.4295e-14
2.41172e-14
2.39018e-14
2.40677e-14
2.41314e-14
2.41208e-14
2.39975e-14
2.39728e-14
2.4003e-14
2.38253e-14
2.38589e-14
2.38182e-14
2.3733e-14
2.37304e-14
2.36688e-14
2.3639e-14
2.36381e-14
2.35684e-14
2.35569e-14
2.35381e-14
2.35056e-14
2.34709e-14
2.34504e-14
2.34287e-14
2.33981e-14
2.33614e-14
2.3346e-14
2.33336e-14
2.33096e-14
2.32705e-14
2.32365e-14
2.31814e-14
2.31446e-14
2.31343e-14
2.31184e-14
2.30871e-14
2.30615e-14
2.30241e-14
2.29992e-14
2.29823e-14
2.2949e-14
2.29141e-14
2.2893e-14
2.2861e-14
2.28328e-14
2.28088e-14
2.28037e-14
2.2737e-14
2.27219e-14
2.2691e-14
2.26418e-14
2.26702e-14
2.25511e-14
2.23638e-14
2.26937e-14
2.25738e-14
2.22095e-14
2.18174e-14
2.24614e-14
2.22342e-14
2.60018e-14
2.5957e-14
2.55964e-14
2.54659e-14
2.54291e-14
2.51428e-14
2.50966e-14
2.49735e-14
2.48177e-14
2.47626e-14
2.45895e-14
2.44784e-14
2.44658e-14
2.43508e-14
2.42727e-14
2.41905e-14
2.41039e-14
2.40326e-14
2.39538e-14
2.38637e-14
2.37824e-14
2.37196e-14
2.36198e-14
2.35126e-14
2.34188e-14
2.33448e-14
2.33015e-14
2.32658e-14
2.31949e-14
2.30963e-14
2.29842e-14
2.29003e-14
2.28294e-14
2.27586e-14
2.26628e-14
2.25893e-14
2.24995e-14
2.24308e-14
2.2352e-14
2.22659e-14
2.21815e-14
2.2107e-14
2.20106e-14
2.1901e-14
2.188e-14
2.17937e-14
2.16028e-14
2.1491e-14
2.14435e-14
2.14188e-14
2.11045e-14
2.05688e-14
2.14152e-14
2.09877e-14
2.03869e-14
2.03375e-14
2.7841e-14
2.76203e-14
2.71804e-14
2.69878e-14
2.6833e-14
2.64312e-14
2.63174e-14
2.61182e-14
2.58867e-14
2.57449e-14
2.55689e-14
2.54041e-14
2.52648e-14
2.51081e-14
2.49628e-14
2.48208e-14
2.46928e-14
2.45582e-14
2.44271e-14
2.42949e-14
2.41695e-14
2.40393e-14
2.39179e-14
2.38085e-14
2.36932e-14
2.35523e-14
2.33907e-14
2.32229e-14
2.30844e-14
2.29629e-14
2.28485e-14
2.27287e-14
2.25918e-14
2.24597e-14
2.23317e-14
2.22051e-14
2.20743e-14
2.19433e-14
2.18075e-14
2.1678e-14
2.15432e-14
2.14107e-14
2.12628e-14
2.11063e-14
2.09636e-14
2.08019e-14
2.06119e-14
2.0536e-14
2.02452e-14
1.98572e-14
2.01061e-14
1.98618e-14
1.90299e-14
1.85234e-14
1.90127e-14
1.85261e-14
2.96955e-14
2.94615e-14
2.87847e-14
2.84587e-14
2.82377e-14
2.77348e-14
2.75318e-14
2.7256e-14
2.69442e-14
2.6726e-14
2.64981e-14
2.62709e-14
2.60637e-14
2.58602e-14
2.56652e-14
2.54798e-14
2.52949e-14
2.51037e-14
2.49245e-14
2.47448e-14
2.45702e-14
2.4373e-14
2.41949e-14
2.39979e-14
2.38186e-14
2.36294e-14
2.34724e-14
2.32826e-14
2.31147e-14
2.29134e-14
2.27403e-14
2.25356e-14
2.23646e-14
2.21658e-14
2.2006e-14
2.18042e-14
2.16388e-14
2.14396e-14
2.12743e-14
2.10728e-14
2.08965e-14
2.06883e-14
2.05135e-14
2.02885e-14
2.00932e-14
1.98884e-14
1.96442e-14
1.9341e-14
1.91891e-14
1.90196e-14
1.84456e-14
1.77104e-14
1.85473e-14
1.79437e-14
1.68009e-14
1.66402e-14
3.15048e-14
3.10742e-14
3.03593e-14
2.98976e-14
2.96063e-14
2.90146e-14
2.8721e-14
2.83714e-14
2.79831e-14
2.77104e-14
2.74102e-14
2.71289e-14
2.68512e-14
2.66174e-14
2.63525e-14
2.61346e-14
2.58691e-14
2.56672e-14
2.54024e-14
2.52051e-14
2.49323e-14
2.47446e-14
2.44733e-14
2.42784e-14
2.3997e-14
2.38077e-14
2.3523e-14
2.33385e-14
2.30501e-14
2.28615e-14
2.25642e-14
2.23776e-14
2.2097e-14
2.19146e-14
2.16276e-14
2.14471e-14
2.11692e-14
2.09846e-14
2.07053e-14
2.05146e-14
2.02325e-14
2.00365e-14
1.97498e-14
1.95167e-14
1.92304e-14
1.89595e-14
1.86249e-14
1.84713e-14
1.79826e-14
1.73489e-14
1.76323e-14
1.72083e-14
1.59347e-14
1.52177e-14
1.55803e-14
1.48769e-14
3.33102e-14
3.2833e-14
3.19042e-14
3.12696e-14
3.0911e-14
3.01945e-14
2.9838e-14
2.94168e-14
2.89683e-14
2.86007e-14
2.82655e-14
2.7909e-14
2.76087e-14
2.72885e-14
2.70004e-14
2.66824e-14
2.64201e-14
2.61195e-14
2.58627e-14
2.55574e-14
2.5302e-14
2.5008e-14
2.474e-14
2.44472e-14
2.41816e-14
2.38866e-14
2.36114e-14
2.3318e-14
2.3036e-14
2.27447e-14
2.24689e-14
2.21911e-14
2.19111e-14
2.16288e-14
2.13448e-14
2.10712e-14
2.07823e-14
2.05142e-14
2.02305e-14
1.99576e-14
1.96609e-14
1.93885e-14
1.90788e-14
1.87814e-14
1.84515e-14
1.81613e-14
1.77832e-14
1.7323e-14
1.69659e-14
1.69242e-14
1.59302e-14
1.47155e-14
1.58864e-14
1.52229e-14
1.33371e-14
1.30178e-14
3.50724e-14
3.44406e-14
3.34018e-14
3.26843e-14
3.23124e-14
3.14401e-14
3.09807e-14
3.04957e-14
2.99881e-14
2.95502e-14
2.91799e-14
2.87383e-14
2.84105e-14
2.79958e-14
2.77362e-14
2.73219e-14
2.70843e-14
2.66336e-14
2.64337e-14
2.59739e-14
2.57958e-14
2.52969e-14
2.51396e-14
2.46278e-14
2.44841e-14
2.39423e-14
2.38155e-14
2.32414e-14
2.31283e-14
2.25541e-14
2.24598e-14
2.1879e-14
2.1795e-14
2.12235e-14
2.11524e-14
2.05555e-14
2.04712e-14
1.98987e-14
1.98046e-14
1.923e-14
1.91171e-14
1.8547e-14
1.8397e-14
1.78609e-14
1.76971e-14
1.71259e-14
1.6801e-14
1.63793e-14
1.60531e-14
1.48835e-14
1.4998e-14
1.50384e-14
1.31592e-14
1.1681e-14
1.23867e-14
1.13407e-14
3.67869e-14
3.59525e-14
3.497e-14
3.38225e-14
3.34627e-14
3.2653e-14
3.20261e-14
3.1524e-14
3.09373e-14
3.05119e-14
2.99843e-14
2.96167e-14
2.9147e-14
2.88318e-14
2.83199e-14
2.8035e-14
2.75442e-14
2.73142e-14
2.67759e-14
2.65668e-14
2.60064e-14
2.58256e-14
2.52537e-14
2.50641e-14
2.44757e-14
2.42931e-14
2.36883e-14
2.35091e-14
2.28866e-14
2.27095e-14
2.20718e-14
2.18877e-14
2.12589e-14
2.10741e-14
2.04715e-14
2.03365e-14
1.97747e-14
1.95791e-14
1.90251e-14
1.88472e-14
1.83191e-14
1.8118e-14
1.75825e-14
1.72934e-14
1.67235e-14
1.63937e-14
1.59151e-14
1.54656e-14
1.47389e-14
1.4624e-14
1.3959e-14
1.18554e-14
1.3035e-14
1.24854e-14
1.02059e-14
9.54837e-15
3.84487e-14
3.74952e-14
3.62375e-14
3.51429e-14
3.45302e-14
3.36051e-14
3.29569e-14
3.23675e-14
3.17005e-14
3.12196e-14
3.0673e-14
3.02454e-14
2.96799e-14
2.93407e-14
2.87856e-14
2.85165e-14
2.79072e-14
2.76942e-14
2.70577e-14
2.68921e-14
2.61987e-14
2.60865e-14
2.5323e-14
2.52685e-14
2.44614e-14
2.44466e-14
2.35931e-14
2.36116e-14
2.27067e-14
2.27558e-14
2.18186e-14
2.19034e-14
2.09729e-14
2.10851e-14
2.01326e-14
2.02568e-14
1.92741e-14
1.94232e-14
1.8523e-14
1.86188e-14
1.76808e-14
1.77734e-14
1.68833e-14
1.68733e-14
1.60443e-14
1.59863e-14
1.50262e-14
1.48176e-14
1.4068e-14
1.34421e-14
1.24163e-14
1.26553e-14
1.12884e-14
9.11304e-15
9.11771e-15
7.96366e-15
4.00818e-14
3.92386e-14
3.74807e-14
3.67434e-14
3.58215e-14
3.47374e-14
3.41928e-14
3.34134e-14
3.27898e-14
3.21593e-14
3.17439e-14
3.10651e-14
3.07514e-14
3.00876e-14
2.98636e-14
2.9135e-14
2.89914e-14
2.81652e-14
2.8113e-14
2.71865e-14
2.7218e-14
2.61967e-14
2.62912e-14
2.51954e-14
2.5334e-14
2.4173e-14
2.43314e-14
2.30921e-14
2.33172e-14
2.20404e-14
2.23324e-14
2.10893e-14
2.14085e-14
2.01488e-14
2.04487e-14
1.91343e-14
1.9441e-14
1.82325e-14
1.83899e-14
1.72156e-14
1.74051e-14
1.62605e-14
1.63658e-14
1.53342e-14
1.5365e-14
1.43632e-14
1.41944e-14
1.33352e-14
1.30178e-14
1.20248e-14
1.17272e-14
1.01729e-14
9.30305e-15
9.73505e-15
7.01577e-15
6.27398e-15
4.15986e-14
4.04229e-14
3.80695e-14
3.74901e-14
3.66017e-14
3.55466e-14
3.48964e-14
3.41799e-14
3.34968e-14
3.2906e-14
3.2335e-14
3.17683e-14
3.12767e-14
3.0712e-14
3.0215e-14
2.96534e-14
2.92232e-14
2.86279e-14
2.82197e-14
2.7605e-14
2.7218e-14
2.65855e-14
2.62206e-14
2.55201e-14
2.52054e-14
2.45074e-14
2.41969e-14
2.33945e-14
2.30415e-14
2.21795e-14
2.17928e-14
2.08592e-14
2.05003e-14
1.96856e-14
1.95151e-14
1.88019e-14
1.865e-14
1.77778e-14
1.77218e-14
1.70563e-14
1.69629e-14
1.61764e-14
1.59839e-14
1.51612e-14
1.49116e-14
1.4105e-14
1.38431e-14
1.29999e-14
1.25053e-14
1.148e-14
1.11891e-14
1.00615e-14
9.18541e-15
7.93348e-15
6.06076e-15
4.81309e-15
4.30685e-14
4.19972e-14
3.99989e-14
3.86288e-14
3.76754e-14
3.64464e-14
3.55275e-14
3.48922e-14
3.40688e-14
3.35229e-14
3.27895e-14
3.23786e-14
3.16291e-14
3.13536e-14
3.0551e-14
3.03728e-14
2.94693e-14
2.93914e-14
2.83534e-14
2.83848e-14
2.71929e-14
2.73007e-14
2.59909e-14
2.62528e-14
2.4893e-14
2.52504e-14
2.36798e-14
2.39525e-14
2.22615e-14
2.26589e-14
2.10741e-14
2.18819e-14
2.04298e-14
2.10124e-14
1.92268e-14
1.97177e-14
1.7983e-14
1.85212e-14
1.69526e-14
1.71547e-14
1.55067e-14
1.59553e-14
1.45522e-14
1.48248e-14
1.35447e-14
1.367e-14
1.23534e-14
1.22696e-14
1.11902e-14
1.08165e-14
9.45744e-15
8.43522e-15
7.80981e-15
6.30873e-15
4.44543e-15
3.33703e-15
4.44941e-14
4.28128e-14
4.07572e-14
3.92258e-14
3.83141e-14
3.74012e-14
3.65798e-14
3.57924e-14
3.5113e-14
3.44758e-14
3.3903e-14
3.32895e-14
3.27448e-14
3.21466e-14
3.16314e-14
3.10119e-14
3.04816e-14
2.985e-14
2.93143e-14
2.86426e-14
2.81047e-14
2.74173e-14
2.68293e-14
2.60102e-14
2.53556e-14
2.45964e-14
2.40155e-14
2.33742e-14
2.30607e-14
2.23952e-14
2.1793e-14
2.09118e-14
2.01946e-14
1.93578e-14
1.88287e-14
1.81309e-14
1.76476e-14
1.69641e-14
1.64223e-14
1.58669e-14
1.5444e-14
1.48149e-14
1.42746e-14
1.36799e-14
1.31515e-14
1.25415e-14
1.19562e-14
1.1341e-14
1.06529e-14
9.86486e-15
9.07662e-15
8.15688e-15
7.14075e-15
5.5979e-15
3.69076e-15
1.92574e-15
4.5626e-14
4.32498e-14
4.12018e-14
3.98751e-14
3.87829e-14
3.7819e-14
3.69882e-14
3.6245e-14
3.55719e-14
3.49355e-14
3.43362e-14
3.37449e-14
3.31772e-14
3.2595e-14
3.20289e-14
3.14344e-14
3.08555e-14
3.02371e-14
2.96372e-14
2.8988e-14
2.83647e-14
2.76848e-14
2.70693e-14
2.65698e-14
2.62273e-14
2.57131e-14
2.49511e-14
2.37872e-14
2.25472e-14
2.13906e-14
2.06467e-14
2.01367e-14
1.98045e-14
1.92937e-14
1.86915e-14
1.7998e-14
1.7391e-14
1.67291e-14
1.61412e-14
1.55123e-14
1.49493e-14
1.43375e-14
1.37896e-14
1.31973e-14
1.26445e-14
1.20415e-14
1.14568e-14
1.08114e-14
1.01451e-14
9.39156e-15
8.57422e-15
7.6124e-15
6.51591e-15
5.18532e-15
3.14348e-15
7.60817e-16
)
;

boundaryField
{
    top
    {
        type            zeroGradient;
    }
    bottom
    {
        type            zeroGradient;
    }
    rotatingWall
    {
        type            zeroGradient;
    }
    wall
    {
        type            zeroGradient;
    }
    frontAndBack
    {
        type            empty;
    }
}


// ************************************************************************* //
