/*--------------------------------*- C++ -*----------------------------------*\
| =========                 |                                                 |
| \\      /  F ield         | OpenFOAM: The Open Source CFD Toolbox           |
|  \\    /   O peration     | Version:  5.0                                   |
|   \\  /    A nd           | Web:      www.OpenFOAM.org                      |
|    \\/     M anipulation  |                                                 |
\*---------------------------------------------------------------------------*/
FoamFile
{
    version     2.0;
    format      ascii;
    class       volVectorField;
    location    "297";
    object      U;
}
// * * * * * * * * * * * * * * * * * * * * * * * * * * * * * * * * * * * * * //

dimensions      [0 1 -1 0 0 0 0];

internalField   nonuniform List<vector> 
1568
(
(2.37428e-15 -1.7621e-14 0)
(4.71084e-14 -3.66759e-14 0)
(1.41093e-13 -6.446e-14 0)
(2.75919e-13 -7.49365e-14 0)
(4.25098e-13 -8.19708e-14 0)
(5.98325e-13 -9.64166e-14 0)
(7.92574e-13 -1.03247e-13 0)
(9.97253e-13 -1.0847e-13 0)
(1.21243e-12 -1.1363e-13 0)
(1.43559e-12 -1.16526e-13 0)
(1.66262e-12 -1.17884e-13 0)
(1.89102e-12 -1.18075e-13 0)
(2.11868e-12 -1.16981e-13 0)
(2.34313e-12 -1.14709e-13 0)
(2.56214e-12 -1.11475e-13 0)
(2.77382e-12 -1.07189e-13 0)
(2.97626e-12 -1.01982e-13 0)
(3.1678e-12 -9.5974e-14 0)
(3.34687e-12 -8.91982e-14 0)
(3.51211e-12 -8.17137e-14 0)
(3.66222e-12 -7.35911e-14 0)
(3.79619e-12 -6.49662e-14 0)
(3.91312e-12 -5.56199e-14 0)
(4.01127e-12 -4.4119e-14 0)
(4.09075e-12 -3.18706e-14 0)
(4.1518e-12 -2.10076e-14 0)
(4.19383e-12 -1.05342e-14 0)
(4.21467e-12 -2.80902e-15 0)
(4.21467e-12 2.83509e-15 0)
(4.19394e-12 1.04152e-14 0)
(4.15207e-12 2.08596e-14 0)
(4.09117e-12 3.16849e-14 0)
(4.01177e-12 4.40178e-14 0)
(3.91377e-12 5.54838e-14 0)
(3.79707e-12 6.48906e-14 0)
(3.66338e-12 7.34321e-14 0)
(3.51352e-12 8.16278e-14 0)
(3.34853e-12 8.90197e-14 0)
(3.16977e-12 9.5888e-14 0)
(2.97847e-12 1.01894e-13 0)
(2.77623e-12 1.07107e-13 0)
(2.56484e-12 1.11292e-13 0)
(2.34612e-12 1.146e-13 0)
(2.12197e-12 1.16811e-13 0)
(1.89462e-12 1.17902e-13 0)
(1.66641e-12 1.17664e-13 0)
(1.43985e-12 1.1617e-13 0)
(1.2176e-12 1.13204e-13 0)
(1.0025e-12 1.08787e-13 0)
(7.97568e-13 1.02508e-13 0)
(6.06365e-13 9.44798e-14 0)
(4.3251e-13 8.48653e-14 0)
(2.80427e-13 7.21647e-14 0)
(1.52484e-13 5.87137e-14 0)
(5.99264e-14 3.87857e-14 0)
(7.96748e-15 1.60991e-14 0)
(2.93531e-15 -4.8494e-14 0)
(5.74877e-14 -1.04592e-13 0)
(1.38405e-13 -1.63968e-13 0)
(2.45867e-13 -2.04805e-13 0)
(3.91831e-13 -2.43517e-13 0)
(5.53149e-13 -2.71205e-13 0)
(7.29165e-13 -2.93813e-13 0)
(9.20732e-13 -3.11578e-13 0)
(1.1214e-12 -3.24342e-13 0)
(1.32831e-12 -3.32756e-13 0)
(1.53932e-12 -3.3694e-13 0)
(1.75228e-12 -3.37495e-13 0)
(1.96417e-12 -3.34535e-13 0)
(2.17289e-12 -3.28151e-13 0)
(2.37679e-12 -3.18604e-13 0)
(2.57375e-12 -3.06357e-13 0)
(2.76209e-12 -2.91419e-13 0)
(2.9403e-12 -2.74113e-13 0)
(3.10692e-12 -2.54568e-13 0)
(3.2606e-12 -2.33162e-13 0)
(3.40017e-12 -2.09938e-13 0)
(3.52455e-12 -1.85248e-13 0)
(3.63291e-12 -1.5924e-13 0)
(3.72447e-12 -1.32418e-13 0)
(3.79909e-12 -1.05802e-13 0)
(3.85602e-12 -7.83904e-14 0)
(3.89475e-12 -4.84605e-14 0)
(3.91408e-12 -1.64043e-14 0)
(3.9142e-12 1.62902e-14 0)
(3.89497e-12 4.84637e-14 0)
(3.85629e-12 7.84185e-14 0)
(3.79939e-12 1.0575e-13 0)
(3.72499e-12 1.32217e-13 0)
(3.63366e-12 1.58953e-13 0)
(3.52549e-12 1.84918e-13 0)
(3.40118e-12 2.09595e-13 0)
(3.2618e-12 2.32863e-13 0)
(3.10838e-12 2.54211e-13 0)
(2.94188e-12 2.73723e-13 0)
(2.76395e-12 2.91021e-13 0)
(2.57589e-12 3.05998e-13 0)
(2.37906e-12 3.18252e-13 0)
(2.17539e-12 3.2779e-13 0)
(1.96681e-12 3.34065e-13 0)
(1.75517e-12 3.37105e-13 0)
(1.54271e-12 3.36546e-13 0)
(1.3317e-12 3.32223e-13 0)
(1.12466e-12 3.23707e-13 0)
(9.24276e-13 3.10795e-13 0)
(7.33735e-13 2.9332e-13 0)
(5.55922e-13 2.70558e-13 0)
(3.94044e-13 2.41075e-13 0)
(2.52375e-13 2.06508e-13 0)
(1.36769e-13 1.63267e-13 0)
(5.45548e-14 1.09606e-13 0)
(2.4646e-15 4.6202e-14 0)
(-1.30814e-15 -7.46064e-14 0)
(4.25054e-14 -1.68892e-13 0)
(1.15664e-13 -2.63225e-13 0)
(2.25634e-13 -3.32796e-13 0)
(3.49512e-13 -3.89689e-13 0)
(4.98971e-13 -4.38027e-13 0)
(6.64407e-13 -4.74024e-13 0)
(8.40197e-13 -5.02569e-13 0)
(1.02541e-12 -5.23484e-13 0)
(1.21789e-12 -5.36953e-13 0)
(1.41361e-12 -5.43765e-13 0)
(1.61035e-12 -5.44507e-13 0)
(1.80668e-12 -5.39541e-13 0)
(2.00031e-12 -5.29154e-13 0)
(2.18902e-12 -5.1395e-13 0)
(2.3714e-12 -4.94099e-13 0)
(2.54588e-12 -4.70047e-13 0)
(2.71086e-12 -4.42131e-13 0)
(2.86504e-12 -4.10708e-13 0)
(3.00727e-12 -3.76069e-13 0)
(3.13647e-12 -3.38613e-13 0)
(3.25167e-12 -2.98637e-13 0)
(3.352e-12 -2.56507e-13 0)
(3.43697e-12 -2.12718e-13 0)
(3.50579e-12 -1.67834e-13 0)
(3.55762e-12 -1.21706e-13 0)
(3.5923e-12 -7.38306e-14 0)
(3.60978e-12 -2.47873e-14 0)
(3.60978e-12 2.46825e-14 0)
(3.59239e-12 7.37272e-14 0)
(3.55788e-12 1.21724e-13 0)
(3.50621e-12 1.67859e-13 0)
(3.43748e-12 2.12845e-13 0)
(3.35261e-12 2.56539e-13 0)
(3.25242e-12 2.98693e-13 0)
(3.13745e-12 3.38501e-13 0)
(3.0084e-12 3.7599e-13 0)
(2.8663e-12 4.10451e-13 0)
(2.71236e-12 4.41823e-13 0)
(2.54751e-12 4.69617e-13 0)
(2.37319e-12 4.93588e-13 0)
(2.19106e-12 5.13301e-13 0)
(2.00248e-12 5.28531e-13 0)
(1.80913e-12 5.38774e-13 0)
(1.61305e-12 5.43758e-13 0)
(1.41617e-12 5.42972e-13 0)
(1.22063e-12 5.36007e-13 0)
(1.02883e-12 5.22402e-13 0)
(8.43437e-13 5.01736e-13 0)
(6.66965e-13 4.72893e-13 0)
(5.0206e-13 4.35756e-13 0)
(3.54024e-13 3.89574e-13 0)
(2.25063e-13 3.31365e-13 0)
(1.17544e-13 2.60979e-13 0)
(4.49148e-14 1.74461e-13 0)
(7.30468e-16 7.10155e-14 0)
(-2.05456e-15 -9.02042e-14 0)
(4.10877e-14 -2.31313e-13 0)
(1.02994e-13 -3.44624e-13 0)
(1.9594e-13 -4.45889e-13 0)
(3.14405e-13 -5.24044e-13 0)
(4.49657e-13 -5.86945e-13 0)
(5.99732e-13 -6.37651e-13 0)
(7.60988e-13 -6.76921e-13 0)
(9.31662e-13 -7.04845e-13 0)
(1.10806e-12 -7.22997e-13 0)
(1.28773e-12 -7.32586e-13 0)
(1.46914e-12 -7.33538e-13 0)
(1.64981e-12 -7.26674e-13 0)
(1.82763e-12 -7.12795e-13 0)
(2.00131e-12 -6.92219e-13 0)
(2.16915e-12 -6.65392e-13 0)
(2.32952e-12 -6.32998e-13 0)
(2.48123e-12 -5.95343e-13 0)
(2.62308e-12 -5.53001e-13 0)
(2.75388e-12 -5.06336e-13 0)
(2.87265e-12 -4.55911e-13 0)
(2.97855e-12 -4.02093e-13 0)
(3.07083e-12 -3.45472e-13 0)
(3.14882e-12 -2.86398e-13 0)
(3.21181e-12 -2.25636e-13 0)
(3.25912e-12 -1.62982e-13 0)
(3.29057e-12 -9.86494e-14 0)
(3.3063e-12 -3.29946e-14 0)
(3.30637e-12 3.29004e-14 0)
(3.29079e-12 9.86084e-14 0)
(3.25939e-12 1.62963e-13 0)
(3.21212e-12 2.25648e-13 0)
(3.14926e-12 2.86381e-13 0)
(3.07141e-12 3.45442e-13 0)
(2.9792e-12 4.0199e-13 0)
(2.87335e-12 4.55779e-13 0)
(2.75472e-12 5.06029e-13 0)
(2.62405e-12 5.52681e-13 0)
(2.48232e-12 5.94898e-13 0)
(2.33078e-12 6.32445e-13 0)
(2.17059e-12 6.64763e-13 0)
(2.00291e-12 6.91528e-13 0)
(1.82936e-12 7.11981e-13 0)
(1.65159e-12 7.25963e-13 0)
(1.47119e-12 7.32638e-13 0)
(1.29004e-12 7.31629e-13 0)
(1.11023e-12 7.22264e-13 0)
(9.34065e-13 7.0385e-13 0)
(7.63415e-13 6.7553e-13 0)
(6.01709e-13 6.36847e-13 0)
(4.52268e-13 5.86208e-13 0)
(3.157e-13 5.22307e-13 0)
(1.97636e-13 4.43599e-13 0)
(1.0434e-13 3.47866e-13 0)
(3.90055e-14 2.29456e-13 0)
(8.17981e-16 9.11055e-14 0)
(2.13602e-15 -1.08236e-13 0)
(3.21534e-14 -2.75366e-13 0)
(9.08279e-14 -4.24978e-13 0)
(1.74885e-13 -5.43658e-13 0)
(2.7962e-13 -6.42968e-13 0)
(4.0143e-13 -7.2279e-13 0)
(5.37111e-13 -7.86404e-13 0)
(6.83469e-13 -8.34996e-13 0)
(8.38575e-13 -8.70067e-13 0)
(9.99139e-13 -8.93126e-13 0)
(1.16287e-12 -9.04811e-13 0)
(1.32803e-12 -9.0607e-13 0)
(1.49255e-12 -8.97825e-13 0)
(1.65481e-12 -8.8061e-13 0)
(1.81318e-12 -8.55014e-13 0)
(1.9661e-12 -8.2195e-13 0)
(2.11235e-12 -7.81787e-13 0)
(2.25068e-12 -7.35235e-13 0)
(2.37989e-12 -6.82808e-13 0)
(2.49908e-12 -6.25222e-13 0)
(2.60732e-12 -5.6287e-13 0)
(2.70379e-12 -4.9646e-13 0)
(2.7878e-12 -4.26457e-13 0)
(2.8587e-12 -3.53568e-13 0)
(2.91592e-12 -2.78134e-13 0)
(2.95895e-12 -2.00666e-13 0)
(2.98761e-12 -1.21235e-13 0)
(3.00195e-12 -4.05735e-14 0)
(3.00197e-12 4.05764e-14 0)
(2.98767e-12 1.21194e-13 0)
(2.95913e-12 2.00554e-13 0)
(2.9162e-12 2.78014e-13 0)
(2.85901e-12 3.53375e-13 0)
(2.78812e-12 4.26209e-13 0)
(2.70419e-12 4.9609e-13 0)
(2.6078e-12 5.62461e-13 0)
(2.49965e-12 6.24755e-13 0)
(2.38059e-12 6.8226e-13 0)
(2.25145e-12 7.34615e-13 0)
(2.11323e-12 7.81115e-13 0)
(1.96709e-12 8.212e-13 0)
(1.81428e-12 8.54219e-13 0)
(1.65612e-12 8.79769e-13 0)
(1.49397e-12 8.96957e-13 0)
(1.32947e-12 9.05274e-13 0)
(1.16449e-12 9.03942e-13 0)
(1.00068e-12 8.9223e-13 0)
(8.40089e-13 8.69235e-13 0)
(6.85561e-13 8.34146e-13 0)
(5.3887e-13 7.85587e-13 0)
(4.01971e-13 7.22076e-13 0)
(2.80585e-13 6.42539e-13 0)
(1.76728e-13 5.4435e-13 0)
(8.98523e-14 4.23804e-13 0)
(3.29422e-14 2.78222e-13 0)
(3.01102e-16 1.08325e-13 0)
(-2.24466e-16 -1.23976e-13 0)
(2.88634e-14 -3.18679e-13 0)
(7.8967e-14 -4.91142e-13 0)
(1.53943e-13 -6.33399e-13 0)
(2.46428e-13 -7.50625e-13 0)
(3.55168e-13 -8.45373e-13 0)
(4.76318e-13 -9.20996e-13 0)
(6.07624e-13 -9.7865e-13 0)
(7.46807e-13 -1.02027e-12 0)
(8.90989e-13 -1.04771e-12 0)
(1.03831e-12 -1.06174e-12 0)
(1.18709e-12 -1.06341e-12 0)
(1.33539e-12 -1.05369e-12 0)
(1.48161e-12 -1.03343e-12 0)
(1.62431e-12 -1.00352e-12 0)
(1.76217e-12 -9.64613e-13 0)
(1.89401e-12 -9.17445e-13 0)
(2.01866e-12 -8.62792e-13 0)
(2.13512e-12 -8.01299e-13 0)
(2.24251e-12 -7.33597e-13 0)
(2.34002e-12 -6.60425e-13 0)
(2.42689e-12 -5.82422e-13 0)
(2.50249e-12 -5.00236e-13 0)
(2.56629e-12 -4.14502e-13 0)
(2.61775e-12 -3.25824e-13 0)
(2.65648e-12 -2.34708e-13 0)
(2.68236e-12 -1.41672e-13 0)
(2.6953e-12 -4.73828e-14 0)
(2.6953e-12 4.73093e-14 0)
(2.68239e-12 1.41626e-13 0)
(2.65655e-12 2.3467e-13 0)
(2.61782e-12 3.2573e-13 0)
(2.56641e-12 4.14345e-13 0)
(2.50265e-12 5.00031e-13 0)
(2.42709e-12 5.82167e-13 0)
(2.34027e-12 6.60095e-13 0)
(2.2428e-12 7.33198e-13 0)
(2.13545e-12 8.00773e-13 0)
(2.01906e-12 8.6217e-13 0)
(1.89449e-12 9.16749e-13 0)
(1.76276e-12 9.63822e-13 0)
(1.62499e-12 1.00268e-12 0)
(1.48236e-12 1.03257e-12 0)
(1.33621e-12 1.05274e-12 0)
(1.18805e-12 1.06244e-12 0)
(1.03935e-12 1.0608e-12 0)
(8.91942e-13 1.04682e-12 0)
(7.47925e-13 1.01955e-12 0)
(6.08649e-13 9.77798e-13 0)
(4.76911e-13 9.20058e-13 0)
(3.56502e-13 8.45003e-13 0)
(2.4723e-13 7.50417e-13 0)
(1.52672e-13 6.33476e-13 0)
(7.98847e-14 4.91849e-13 0)
(2.9862e-14 3.21237e-13 0)
(4.04307e-16 1.23271e-13 0)
(-2.91928e-16 -1.35894e-13 0)
(2.55809e-14 -3.57096e-13 0)
(6.88015e-14 -5.49858e-13 0)
(1.33823e-13 -7.11846e-13 0)
(2.15091e-13 -8.45186e-13 0)
(3.1019e-13 -9.53725e-13 0)
(4.16883e-13 -1.0401e-12 0)
(5.33108e-13 -1.10616e-12 0)
(6.561e-13 -1.15413e-12 0)
(7.83701e-13 -1.18567e-12 0)
(9.14437e-13 -1.20176e-12 0)
(1.0465e-12 -1.20378e-12 0)
(1.17813e-12 -1.1929e-12 0)
(1.30796e-12 -1.17007e-12 0)
(1.43475e-12 -1.13619e-12 0)
(1.55728e-12 -1.09211e-12 0)
(1.67439e-12 -1.03873e-12 0)
(1.78512e-12 -9.76811e-13 0)
(1.88861e-12 -9.07149e-13 0)
(1.98403e-12 -8.30483e-13 0)
(2.0706e-12 -7.47609e-13 0)
(2.14774e-12 -6.59242e-13 0)
(2.21487e-12 -5.66105e-13 0)
(2.27147e-12 -4.68923e-13 0)
(2.31712e-12 -3.68431e-13 0)
(2.35152e-12 -2.65206e-13 0)
(2.37449e-12 -1.59969e-13 0)
(2.38599e-12 -5.34738e-14 0)
(2.38601e-12 5.34535e-14 0)
(2.37453e-12 1.59937e-13 0)
(2.35155e-12 2.65151e-13 0)
(2.31714e-12 3.68346e-13 0)
(2.27148e-12 4.68804e-13 0)
(2.21487e-12 5.65899e-13 0)
(2.14774e-12 6.58959e-13 0)
(2.0706e-12 7.47227e-13 0)
(1.98401e-12 8.30004e-13 0)
(1.88862e-12 9.06591e-13 0)
(1.78518e-12 9.76188e-13 0)
(1.67447e-12 1.03804e-12 0)
(1.55741e-12 1.09136e-12 0)
(1.43498e-12 1.13537e-12 0)
(1.30827e-12 1.16922e-12 0)
(1.17847e-12 1.19208e-12 0)
(1.04689e-12 1.20297e-12 0)
(9.15e-13 1.20091e-12 0)
(7.84241e-13 1.18486e-12 0)
(6.56371e-13 1.15353e-12 0)
(5.33633e-13 1.10557e-12 0)
(4.17697e-13 1.03967e-12 0)
(3.09945e-13 9.53556e-13 0)
(2.14862e-13 8.45097e-13 0)
(1.34754e-13 7.1242e-13 0)
(6.81439e-14 5.51338e-13 0)
(2.43906e-14 3.57936e-13 0)
(4.12216e-16 1.36443e-13 0)
(4.32831e-16 -1.46896e-13 0)
(2.1695e-14 -3.88791e-13 0)
(5.88749e-14 -6.0098e-13 0)
(1.14459e-13 -7.79449e-13 0)
(1.84398e-13 -9.27406e-13 0)
(2.66629e-13 -1.04803e-12 0)
(3.59052e-13 -1.1439e-12 0)
(4.5967e-13 -1.21766e-12 0)
(5.66312e-13 -1.27137e-12 0)
(6.77341e-13 -1.30647e-12 0)
(7.91224e-13 -1.32456e-12 0)
(9.06172e-13 -1.3271e-12 0)
(1.02084e-12 -1.31526e-12 0)
(1.13405e-12 -1.29014e-12 0)
(1.24462e-12 -1.25278e-12 0)
(1.35144e-12 -1.20419e-12 0)
(1.45358e-12 -1.1453e-12 0)
(1.55018e-12 -1.07698e-12 0)
(1.64042e-12 -1.0001e-12 0)
(1.72361e-12 -9.15549e-13 0)
(1.79911e-12 -8.24118e-13 0)
(1.86636e-12 -7.26614e-13 0)
(1.92485e-12 -6.23893e-13 0)
(1.97416e-12 -5.16707e-13 0)
(2.01394e-12 -4.05827e-13 0)
(2.04395e-12 -2.92025e-13 0)
(2.064e-12 -1.76075e-13 0)
(2.07404e-12 -5.87957e-14 0)
(2.07401e-12 5.8915e-14 0)
(2.06394e-12 1.76147e-13 0)
(2.04388e-12 2.92041e-13 0)
(2.01383e-12 4.05766e-13 0)
(1.974e-12 5.16563e-13 0)
(1.92467e-12 6.23659e-13 0)
(1.86615e-12 7.26291e-13 0)
(1.79887e-12 8.23692e-13 0)
(1.72338e-12 9.15037e-13 0)
(1.6402e-12 9.99526e-13 0)
(1.54996e-12 1.07632e-12 0)
(1.45339e-12 1.14458e-12 0)
(1.35127e-12 1.20343e-12 0)
(1.24449e-12 1.25199e-12 0)
(1.13399e-12 1.28932e-12 0)
(1.02081e-12 1.31443e-12 0)
(9.0614e-13 1.32631e-12 0)
(7.91221e-13 1.32382e-12 0)
(6.77437e-13 1.30574e-12 0)
(5.66493e-13 1.27076e-12 0)
(4.59655e-13 1.21736e-12 0)
(3.58819e-13 1.14364e-12 0)
(2.67024e-13 1.04785e-12 0)
(1.84644e-13 9.27872e-13 0)
(1.13453e-13 7.80055e-13 0)
(5.87935e-14 6.01886e-13 0)
(2.1946e-14 3.90301e-13 0)
(1.64253e-16 1.475e-13 0)
(8.80292e-17 -1.56685e-13 0)
(1.81931e-14 -4.16099e-13 0)
(4.92073e-14 -6.44668e-13 0)
(9.58804e-14 -8.37411e-13 0)
(1.54842e-13 -9.97666e-13 0)
(2.24206e-13 -1.12868e-12 0)
(3.02196e-13 -1.23325e-12 0)
(3.8722e-13 -1.31381e-12 0)
(4.77664e-13 -1.37237e-12 0)
(5.71892e-13 -1.41069e-12 0)
(6.68502e-13 -1.43066e-12 0)
(7.66183e-13 -1.43367e-12 0)
(8.637e-13 -1.42101e-12 0)
(9.59983e-13 -1.39395e-12 0)
(1.05404e-12 -1.35365e-12 0)
(1.14492e-12 -1.30115e-12 0)
(1.23184e-12 -1.2375e-12 0)
(1.31403e-12 -1.16364e-12 0)
(1.3908e-12 -1.08056e-12 0)
(1.46157e-12 -9.89137e-13 0)
(1.52581e-12 -8.90298e-13 0)
(1.58299e-12 -7.8492e-13 0)
(1.63272e-12 -6.7387e-13 0)
(1.67466e-12 -5.58001e-13 0)
(1.7085e-12 -4.38166e-13 0)
(1.73402e-12 -3.1522e-13 0)
(1.75109e-12 -1.90015e-13 0)
(1.75963e-12 -6.34367e-14 0)
(1.75959e-12 6.35955e-14 0)
(1.75099e-12 1.90181e-13 0)
(1.73386e-12 3.15359e-13 0)
(1.70828e-12 4.38248e-13 0)
(1.67439e-12 5.58013e-13 0)
(1.63239e-12 6.73796e-13 0)
(1.58261e-12 7.8475e-13 0)
(1.52539e-12 8.90035e-13 0)
(1.46113e-12 9.88784e-13 0)
(1.39033e-12 1.08009e-12 0)
(1.31354e-12 1.16307e-12 0)
(1.23136e-12 1.23683e-12 0)
(1.14445e-12 1.30041e-12 0)
(1.05359e-12 1.35285e-12 0)
(9.59571e-13 1.39311e-12 0)
(8.63303e-13 1.42013e-12 0)
(7.6582e-13 1.4328e-12 0)
(6.68219e-13 1.42987e-12 0)
(5.71607e-13 1.40998e-12 0)
(4.7736e-13 1.37168e-12 0)
(3.87055e-13 1.31331e-12 0)
(3.02095e-13 1.23308e-12 0)
(2.23662e-13 1.12875e-12 0)
(1.54414e-13 9.97664e-13 0)
(9.63908e-14 8.37871e-13 0)
(4.88575e-14 6.4565e-13 0)
(1.74565e-14 4.16853e-13 0)
(2.51931e-16 1.56951e-13 0)
(-7.03462e-17 -1.64494e-13 0)
(1.47605e-14 -4.38516e-13 0)
(3.98656e-14 -6.80479e-13 0)
(7.79374e-14 -8.85085e-13 0)
(1.25982e-13 -1.05588e-12 0)
(1.82468e-13 -1.19576e-12 0)
(2.46122e-13 -1.30765e-12 0)
(3.15763e-13 -1.39384e-12 0)
(3.89919e-13 -1.45649e-12 0)
(4.67162e-13 -1.49775e-12 0)
(5.46422e-13 -1.51933e-12 0)
(6.26622e-13 -1.52271e-12 0)
(7.06733e-13 -1.50942e-12 0)
(7.85846e-13 -1.48079e-12 0)
(8.63148e-13 -1.43804e-12 0)
(9.37863e-13 -1.38229e-12 0)
(1.00931e-12 -1.31465e-12 0)
(1.07687e-12 -1.23619e-12 0)
(1.14e-12 -1.1479e-12 0)
(1.19818e-12 -1.05074e-12 0)
(1.25095e-12 -9.45698e-13 0)
(1.29796e-12 -8.33716e-13 0)
(1.33885e-12 -7.15688e-13 0)
(1.3733e-12 -5.9257e-13 0)
(1.4011e-12 -4.65258e-13 0)
(1.42207e-12 -3.34656e-13 0)
(1.4361e-12 -2.01679e-13 0)
(1.44311e-12 -6.72786e-14 0)
(1.44308e-12 6.75883e-14 0)
(1.436e-12 2.01963e-13 0)
(1.42189e-12 3.3489e-13 0)
(1.40082e-12 4.65447e-13 0)
(1.37293e-12 5.92688e-13 0)
(1.3384e-12 7.15722e-13 0)
(1.29745e-12 8.33644e-13 0)
(1.25039e-12 9.45521e-13 0)
(1.19754e-12 1.05045e-12 0)
(1.13932e-12 1.14749e-12 0)
(1.07617e-12 1.23568e-12 0)
(1.00859e-12 1.31406e-12 0)
(9.37134e-13 1.38161e-12 0)
(8.62421e-13 1.43728e-12 0)
(7.85142e-13 1.47999e-12 0)
(7.06051e-13 1.5086e-12 0)
(6.25984e-13 1.5219e-12 0)
(5.45821e-13 1.51854e-12 0)
(4.66554e-13 1.49705e-12 0)
(3.89465e-13 1.45592e-12 0)
(3.154e-13 1.39337e-12 0)
(2.4561e-13 1.30731e-12 0)
(1.82222e-13 1.19575e-12 0)
(1.25883e-13 1.05635e-12 0)
(7.73224e-14 8.85544e-13 0)
(3.97185e-14 6.80883e-13 0)
(1.47505e-14 4.39539e-13 0)
(1.38416e-16 1.64638e-13 0)
(7.40501e-18 -1.70657e-13 0)
(1.14678e-14 -4.56368e-13 0)
(3.08927e-14 -7.0892e-13 0)
(6.02898e-14 -9.23168e-13 0)
(9.75333e-14 -1.10236e-12 0)
(1.41441e-13 -1.24935e-12 0)
(1.90916e-13 -1.36697e-12 0)
(2.45195e-13 -1.4577e-12 0)
(3.02922e-13 -1.52382e-12 0)
(3.63015e-13 -1.56742e-12 0)
(4.24879e-13 -1.59034e-12 0)
(4.8746e-13 -1.59411e-12 0)
(5.49943e-13 -1.58031e-12 0)
(6.1169e-13 -1.55045e-12 0)
(6.72057e-13 -1.50573e-12 0)
(7.30401e-13 -1.44738e-12 0)
(7.86187e-13 -1.37655e-12 0)
(8.38943e-13 -1.29437e-12 0)
(8.88228e-13 -1.20188e-12 0)
(9.33658e-13 -1.10014e-12 0)
(9.74873e-13 -9.90112e-13 0)
(1.01156e-12 -8.7282e-13 0)
(1.04346e-12 -7.49223e-13 0)
(1.07035e-12 -6.20291e-13 0)
(1.09206e-12 -4.86961e-13 0)
(1.10845e-12 -3.5022e-13 0)
(1.1194e-12 -2.11015e-13 0)
(1.12486e-12 -7.03458e-14 0)
(1.1248e-12 7.08154e-14 0)
(1.11922e-12 2.11453e-13 0)
(1.10818e-12 3.50599e-13 0)
(1.09172e-12 4.87262e-13 0)
(1.06991e-12 6.20494e-13 0)
(1.04292e-12 7.49331e-13 0)
(1.01093e-12 8.72817e-13 0)
(9.74157e-13 9.90006e-13 0)
(9.3288e-13 1.0999e-12 0)
(8.87402e-13 1.20154e-12 0)
(8.38074e-13 1.29391e-12 0)
(7.85287e-13 1.376e-12 0)
(7.29471e-13 1.44672e-12 0)
(6.71125e-13 1.505e-12 0)
(6.10782e-13 1.54967e-12 0)
(5.49042e-13 1.57951e-12 0)
(4.8656e-13 1.59329e-12 0)
(4.2409e-13 1.58955e-12 0)
(3.62304e-13 1.56673e-12 0)
(3.02161e-13 1.52322e-12 0)
(2.44559e-13 1.45719e-12 0)
(1.90582e-13 1.36671e-12 0)
(1.41062e-13 1.2492e-12 0)
(9.70152e-14 1.10226e-12 0)
(6.02915e-14 9.23569e-13 0)
(3.08388e-14 7.09704e-13 0)
(1.09478e-14 4.56768e-13 0)
(2.03741e-16 1.70858e-13 0)
(-4.77741e-17 -1.75305e-13 0)
(8.1983e-15 -4.6975e-13 0)
(2.20132e-14 -7.30311e-13 0)
(4.29744e-14 -9.5178e-13 0)
(6.96415e-14 -1.13716e-12 0)
(1.01021e-13 -1.28948e-12 0)
(1.36354e-13 -1.41149e-12 0)
(1.75152e-13 -1.50573e-12 0)
(2.16455e-13 -1.57453e-12 0)
(2.59456e-13 -1.61991e-12 0)
(3.03818e-13 -1.64382e-12 0)
(3.48524e-13 -1.64789e-12 0)
(3.93371e-13 -1.63375e-12 0)
(4.37581e-13 -1.60295e-12 0)
(4.80843e-13 -1.55675e-12 0)
(5.22649e-13 -1.49642e-12 0)
(5.62624e-13 -1.4232e-12 0)
(6.00428e-13 -1.33821e-12 0)
(6.35738e-13 -1.24257e-12 0)
(6.68279e-13 -1.13734e-12 0)
(6.97802e-13 -1.02358e-12 0)
(7.24082e-13 -9.02269e-13 0)
(7.46942e-13 -7.74462e-13 0)
(7.66213e-13 -6.4113e-13 0)
(7.81755e-13 -5.03289e-13 0)
(7.9347e-13 -3.61921e-13 0)
(8.01297e-13 -2.18043e-13 0)
(8.05194e-13 -7.26435e-14 0)
(8.05143e-13 7.32433e-14 0)
(8.01131e-13 2.18609e-13 0)
(7.93174e-13 3.62448e-13 0)
(7.8133e-13 5.03741e-13 0)
(7.65683e-13 6.41495e-13 0)
(7.46317e-13 7.7472e-13 0)
(7.23376e-13 9.02413e-13 0)
(6.97002e-13 1.02358e-12 0)
(6.67391e-13 1.13723e-12 0)
(6.34788e-13 1.24233e-12 0)
(5.9942e-13 1.33784e-12 0)
(5.61573e-13 1.4227e-12 0)
(5.21569e-13 1.49582e-12 0)
(4.79753e-13 1.55605e-12 0)
(4.365e-13 1.60218e-12 0)
(3.92291e-13 1.63293e-12 0)
(3.47474e-13 1.64705e-12 0)
(3.02869e-13 1.643e-12 0)
(2.58531e-13 1.6191e-12 0)
(2.1564e-13 1.57383e-12 0)
(1.7457e-13 1.5052e-12 0)
(1.35661e-13 1.41099e-12 0)
(1.00417e-13 1.28919e-12 0)
(6.96272e-14 1.13723e-12 0)
(4.28765e-14 9.51763e-13 0)
(2.16273e-14 7.30382e-13 0)
(7.98465e-15 4.70311e-13 0)
(3.26677e-18 1.75304e-13 0)
(-8.58299e-17 -1.78364e-13 0)
(5.0169e-15 -4.78613e-13 0)
(1.33172e-14 -7.4455e-13 0)
(2.59219e-14 -9.70736e-13 0)
(4.20507e-14 -1.16034e-12 0)
(6.09402e-14 -1.31624e-12 0)
(8.21536e-14 -1.44124e-12 0)
(1.05524e-13 -1.53785e-12 0)
(1.3037e-13 -1.60838e-12 0)
(1.56207e-13 -1.65494e-12 0)
(1.83402e-13 -1.67933e-12 0)
(2.09469e-13 -1.68346e-12 0)
(2.37012e-13 -1.66944e-12 0)
(2.63538e-13 -1.63804e-12 0)
(2.89564e-13 -1.59085e-12 0)
(3.1471e-13 -1.5292e-12 0)
(3.3874e-13 -1.45437e-12 0)
(3.61473e-13 -1.36752e-12 0)
(3.82721e-13 -1.26978e-12 0)
(4.0229e-13 -1.16222e-12 0)
(4.20044e-13 -1.04594e-12 0)
(4.35854e-13 -9.21959e-13 0)
(4.49584e-13 -7.91338e-13 0)
(4.61156e-13 -6.55077e-13 0)
(4.70491e-13 -5.14218e-13 0)
(4.77531e-13 -3.69744e-13 0)
(4.8223e-13 -2.22717e-13 0)
(4.84546e-13 -7.4145e-14 0)
(4.84463e-13 7.49165e-14 0)
(4.82016e-13 2.23447e-13 0)
(4.77209e-13 3.70409e-13 0)
(4.70057e-13 5.148e-13 0)
(4.60608e-13 6.55578e-13 0)
(4.48917e-13 7.91727e-13 0)
(4.35067e-13 9.22241e-13 0)
(4.19171e-13 1.04607e-12 0)
(4.01332e-13 1.16222e-12 0)
(3.81679e-13 1.26963e-12 0)
(3.60373e-13 1.36724e-12 0)
(3.37588e-13 1.45396e-12 0)
(3.13515e-13 1.52867e-12 0)
(2.88356e-13 1.5902e-12 0)
(2.6234e-13 1.63731e-12 0)
(2.35816e-13 1.66863e-12 0)
(2.08302e-13 1.68261e-12 0)
(1.82302e-13 1.67848e-12 0)
(1.55239e-13 1.65411e-12 0)
(1.29484e-13 1.60761e-12 0)
(1.04649e-13 1.53714e-12 0)
(8.16202e-14 1.44072e-12 0)
(6.07068e-14 1.31589e-12 0)
(4.14099e-14 1.15991e-12 0)
(2.55786e-14 9.70702e-13 0)
(1.35678e-14 7.44837e-13 0)
(4.67881e-15 4.78715e-13 0)
(2.04167e-16 1.78386e-13 0)
(-5.09845e-17 -1.79901e-13 0)
(1.79378e-15 -4.83108e-13 0)
(4.69299e-15 -7.51695e-13 0)
(9.01338e-15 -9.80297e-13 0)
(1.46147e-14 -1.17201e-12 0)
(2.10663e-14 -1.3297e-12 0)
(2.81826e-14 -1.45615e-12 0)
(3.61428e-14 -1.55391e-12 0)
(4.45217e-14 -1.62531e-12 0)
(5.29707e-14 -1.6725e-12 0)
(6.21778e-14 -1.69743e-12 0)
(7.11492e-14 -1.70208e-12 0)
(8.10748e-14 -1.68745e-12 0)
(8.94947e-14 -1.65555e-12 0)
(9.81712e-14 -1.60784e-12 0)
(1.06588e-13 -1.54558e-12 0)
(1.14624e-13 -1.46997e-12 0)
(1.2223e-13 -1.38218e-12 0)
(1.29339e-13 -1.28337e-12 0)
(1.35891e-13 -1.17466e-12 0)
(1.41824e-13 -1.0571e-12 0)
(1.47095e-13 -9.31802e-13 0)
(1.51682e-13 -7.99754e-13 0)
(1.55546e-13 -6.62026e-13 0)
(1.58661e-13 -5.1963e-13 0)
(1.60994e-13 -3.73621e-13 0)
(1.62523e-13 -2.25014e-13 0)
(1.63254e-13 -7.48801e-14 0)
(1.6318e-13 7.5776e-14 0)
(1.62304e-13 2.25903e-13 0)
(1.60637e-13 3.74452e-13 0)
(1.58187e-13 5.20376e-13 0)
(1.54961e-13 6.62664e-13 0)
(1.50996e-13 8.00271e-13 0)
(1.463e-13 9.32186e-13 0)
(1.4092e-13 1.05737e-12 0)
(1.34897e-13 1.17476e-12 0)
(1.28258e-13 1.28332e-12 0)
(1.21084e-13 1.38198e-12 0)
(1.13421e-13 1.46961e-12 0)
(1.0533e-13 1.5451e-12 0)
(9.68997e-14 1.60723e-12 0)
(8.82328e-14 1.65483e-12 0)
(7.98065e-14 1.68665e-12 0)
(6.99214e-14 1.70123e-12 0)
(6.1037e-14 1.69653e-12 0)
(5.18838e-14 1.67161e-12 0)
(4.35431e-14 1.62445e-12 0)
(3.54952e-14 1.5531e-12 0)
(2.75092e-14 1.45539e-12 0)
(2.01945e-14 1.32911e-12 0)
(1.45494e-14 1.1717e-12 0)
(9.27221e-15 9.80018e-13 0)
(4.10029e-15 7.51472e-13 0)
(1.37895e-15 4.83392e-13 0)
(-2.1839e-17 1.79808e-13 0)
(-7.15465e-17 -1.79978e-13 0)
(-1.26537e-15 -4.83197e-13 0)
(-3.85601e-15 -7.51874e-13 0)
(-7.87625e-15 -9.80497e-13 0)
(-1.27512e-14 -1.17218e-12 0)
(-1.87156e-14 -1.32986e-12 0)
(-2.56546e-14 -1.45629e-12 0)
(-3.30983e-14 -1.55402e-12 0)
(-4.10916e-14 -1.62542e-12 0)
(-4.93607e-14 -1.6726e-12 0)
(-5.82621e-14 -1.69751e-12 0)
(-6.69729e-14 -1.70215e-12 0)
(-7.67137e-14 -1.68751e-12 0)
(-8.49506e-14 -1.6556e-12 0)
(-9.3453e-14 -1.60788e-12 0)
(-1.01734e-13 -1.54561e-12 0)
(-1.0966e-13 -1.46999e-12 0)
(-1.17169e-13 -1.38219e-12 0)
(-1.24204e-13 -1.28337e-12 0)
(-1.30701e-13 -1.17464e-12 0)
(-1.3661e-13 -1.05708e-12 0)
(-1.41866e-13 -9.31735e-13 0)
(-1.46441e-13 -7.99675e-13 0)
(-1.50314e-13 -6.61938e-13 0)
(-1.5345e-13 -5.19543e-13 0)
(-1.55834e-13 -3.73547e-13 0)
(-1.57459e-13 -2.24958e-13 0)
(-1.58316e-13 -7.48127e-14 0)
(-1.58383e-13 7.58384e-14 0)
(-1.57667e-13 2.25955e-13 0)
(-1.56182e-13 3.74507e-13 0)
(-1.5392e-13 5.20448e-13 0)
(-1.50897e-13 6.62746e-13 0)
(-1.47139e-13 8.00375e-13 0)
(-1.42658e-13 9.32279e-13 0)
(-1.37503e-13 1.05747e-12 0)
(-1.31705e-13 1.17486e-12 0)
(-1.25291e-13 1.28342e-12 0)
(-1.18328e-13 1.38207e-12 0)
(-1.10874e-13 1.4697e-12 0)
(-1.02995e-13 1.54517e-12 0)
(-9.47481e-14 1.60731e-12 0)
(-8.62381e-14 1.65489e-12 0)
(-7.7989e-14 1.6867e-12 0)
(-6.82345e-14 1.70126e-12 0)
(-5.9429e-14 1.69656e-12 0)
(-5.04e-14 1.67163e-12 0)
(-4.20605e-14 1.62442e-12 0)
(-3.40975e-14 1.55307e-12 0)
(-2.62419e-14 1.45546e-12 0)
(-1.8806e-14 1.3291e-12 0)
(-1.34365e-14 1.17142e-12 0)
(-8.52879e-15 9.8009e-13 0)
(-3.47237e-15 7.51745e-13 0)
(-1.51109e-15 4.83162e-13 0)
(1.46724e-16 1.79831e-13 0)
(-1.76817e-16 -1.785e-13 0)
(-4.42087e-15 -4.79024e-13 0)
(-1.25247e-14 -7.45023e-13 0)
(-2.4771e-14 -9.7124e-13 0)
(-4.01818e-14 -1.16085e-12 0)
(-5.86102e-14 -1.31671e-12 0)
(-7.96622e-14 -1.44164e-12 0)
(-1.02562e-13 -1.53821e-12 0)
(-1.27053e-13 -1.60869e-12 0)
(-1.52707e-13 -1.65521e-12 0)
(-1.7961e-13 -1.67956e-12 0)
(-2.05423e-13 -1.68366e-12 0)
(-2.32805e-13 -1.6696e-12 0)
(-2.59156e-13 -1.63818e-12 0)
(-2.85011e-13 -1.59095e-12 0)
(-3.10026e-13 -1.52928e-12 0)
(-3.33946e-13 -1.45442e-12 0)
(-3.56587e-13 -1.36754e-12 0)
(-3.77759e-13 -1.26976e-12 0)
(-3.97276e-13 -1.16218e-12 0)
(-4.1498e-13 -1.04586e-12 0)
(-4.30765e-13 -9.21855e-13 0)
(-4.44518e-13 -7.91205e-13 0)
(-4.5611e-13 -6.5491e-13 0)
(-4.65486e-13 -5.14028e-13 0)
(-4.72588e-13 -3.69548e-13 0)
(-4.77354e-13 -2.2253e-13 0)
(-4.79778e-13 -7.3956e-14 0)
(-4.79851e-13 7.51189e-14 0)
(-4.77549e-13 2.2368e-13 0)
(-4.7289e-13 3.70663e-13 0)
(-4.65912e-13 5.15076e-13 0)
(-4.56652e-13 6.55849e-13 0)
(-4.45178e-13 7.92018e-13 0)
(-4.31551e-13 9.22526e-13 0)
(-4.15864e-13 1.04637e-12 0)
(-3.98238e-13 1.16251e-12 0)
(-3.78804e-13 1.26992e-12 0)
(-3.57716e-13 1.36751e-12 0)
(-3.35131e-13 1.45422e-12 0)
(-3.11252e-13 1.5289e-12 0)
(-2.86277e-13 1.59042e-12 0)
(-2.60422e-13 1.63749e-12 0)
(-2.34062e-13 1.66879e-12 0)
(-2.06659e-13 1.68273e-12 0)
(-1.80737e-13 1.67856e-12 0)
(-1.53838e-13 1.65413e-12 0)
(-1.28071e-13 1.60764e-12 0)
(-1.03172e-13 1.53714e-12 0)
(-8.03565e-14 1.44058e-12 0)
(-5.96935e-14 1.3158e-12 0)
(-4.02373e-14 1.16015e-12 0)
(-2.43148e-14 9.7049e-13 0)
(-1.32816e-14 7.44564e-13 0)
(-5.11984e-15 4.78979e-13 0)
(-1.40654e-17 1.78311e-13 0)
(-7.01497e-17 -1.75518e-13 0)
(-7.59874e-15 -4.70379e-13 0)
(-2.11093e-14 -7.31124e-13 0)
(-4.18578e-14 -9.52552e-13 0)
(-6.78487e-14 -1.13795e-12 0)
(-9.87552e-14 -1.29022e-12 0)
(-1.33978e-13 -1.41217e-12 0)
(-1.72346e-13 -1.50636e-12 0)
(-2.1332e-13 -1.57505e-12 0)
(-2.56197e-13 -1.62036e-12 0)
(-3.00303e-13 -1.64423e-12 0)
(-3.44768e-13 -1.64824e-12 0)
(-3.89463e-13 -1.63404e-12 0)
(-4.33514e-13 -1.6032e-12 0)
(-4.76631e-13 -1.55695e-12 0)
(-5.18312e-13 -1.49658e-12 0)
(-5.58179e-13 -1.4233e-12 0)
(-5.95895e-13 -1.33828e-12 0)
(-6.31133e-13 -1.24258e-12 0)
(-6.63625e-13 -1.13732e-12 0)
(-6.9312e-13 -1.02348e-12 0)
(-7.19385e-13 -9.02168e-13 0)
(-7.42225e-13 -7.7429e-13 0)
(-7.61504e-13 -6.40948e-13 0)
(-7.77085e-13 -5.03051e-13 0)
(-7.88872e-13 -3.61674e-13 0)
(-7.96785e-13 -2.1772e-13 0)
(-8.00768e-13 -7.23179e-14 0)
(-8.00812e-13 7.36368e-14 0)
(-7.96932e-13 2.19011e-13 0)
(-7.89142e-13 3.62908e-13 0)
(-7.77489e-13 5.04197e-13 0)
(-7.6202e-13 6.42008e-13 0)
(-7.42835e-13 7.75214e-13 0)
(-7.20082e-13 9.02961e-13 0)
(-6.93913e-13 1.0241e-12 0)
(-6.64516e-13 1.13778e-12 0)
(-6.32113e-13 1.24283e-12 0)
(-5.96936e-13 1.33835e-12 0)
(-5.59281e-13 1.42316e-12 0)
(-5.19467e-13 1.49627e-12 0)
(-4.77816e-13 1.55643e-12 0)
(-4.34711e-13 1.60255e-12 0)
(-3.90657e-13 1.63322e-12 0)
(-3.4596e-13 1.6473e-12 0)
(-3.01439e-13 1.64318e-12 0)
(-2.57167e-13 1.61926e-12 0)
(-2.14244e-13 1.57385e-12 0)
(-1.73411e-13 1.50518e-12 0)
(-1.34549e-13 1.41109e-12 0)
(-9.87183e-14 1.28908e-12 0)
(-6.87199e-14 1.13685e-12 0)
(-4.2741e-14 9.51846e-13 0)
(-2.06374e-14 7.30666e-13 0)
(-7.88616e-15 4.70082e-13 0)
(1.66521e-16 1.75326e-13 0)
(-2.15667e-16 -1.7097e-13 0)
(-1.0862e-14 -4.5733e-13 0)
(-3.00351e-14 -7.10063e-13 0)
(-5.913e-14 -9.24302e-13 0)
(-9.58298e-14 -1.10338e-12 0)
(-1.39345e-13 -1.25028e-12 0)
(-1.8878e-13 -1.36781e-12 0)
(-2.42635e-13 -1.45848e-12 0)
(-3.00074e-13 -1.52454e-12 0)
(-3.60137e-13 -1.56802e-12 0)
(-4.21766e-13 -1.59086e-12 0)
(-4.84124e-13 -1.59455e-12 0)
(-5.46506e-13 -1.58071e-12 0)
(-6.08115e-13 -1.55076e-12 0)
(-6.68343e-13 -1.506e-12 0)
(-7.26571e-13 -1.44755e-12 0)
(-7.8227e-13 -1.3767e-12 0)
(-8.3494e-13 -1.29443e-12 0)
(-8.84161e-13 -1.20191e-12 0)
(-9.29528e-13 -1.10006e-12 0)
(-9.70708e-13 -9.9002e-13 0)
(-1.00738e-12 -8.7262e-13 0)
(-1.03929e-12 -7.48993e-13 0)
(-1.06621e-12 -6.19967e-13 0)
(-1.08794e-12 -4.86632e-13 0)
(-1.10435e-12 -3.49812e-13 0)
(-1.11535e-12 -2.10616e-13 0)
(-1.1209e-12 -6.98682e-14 0)
(-1.12096e-12 7.12836e-14 0)
(-1.11551e-12 2.12007e-13 0)
(-1.10458e-12 3.51158e-13 0)
(-1.08825e-12 4.8791e-13 0)
(-1.06661e-12 6.21158e-13 0)
(-1.0398e-12 7.50065e-13 0)
(-1.00799e-12 8.73537e-13 0)
(-9.71407e-13 9.90757e-13 0)
(-9.3031e-13 1.10062e-12 0)
(-8.85015e-13 1.20226e-12 0)
(-8.35861e-13 1.29457e-12 0)
(-7.83247e-13 1.37663e-12 0)
(-7.27606e-13 1.44729e-12 0)
(-6.69409e-13 1.50553e-12 0)
(-6.09185e-13 1.5501e-12 0)
(-5.47604e-13 1.57988e-12 0)
(-4.85206e-13 1.59358e-12 0)
(-4.22759e-13 1.58977e-12 0)
(-3.61183e-13 1.56682e-12 0)
(-3.01037e-13 1.5233e-12 0)
(-2.43093e-13 1.45723e-12 0)
(-1.89501e-13 1.3664e-12 0)
(-1.40656e-13 1.24909e-12 0)
(-9.57947e-14 1.10243e-12 0)
(-5.85251e-14 9.23235e-13 0)
(-3.10667e-14 7.09213e-13 0)
(-1.16363e-14 4.57146e-13 0)
(-1.71238e-16 1.7068e-13 0)
(-9.82911e-17 -1.6483e-13 0)
(-1.42036e-14 -4.39777e-13 0)
(-3.89397e-14 -6.81751e-13 0)
(-7.67878e-14 -8.86388e-13 0)
(-1.24315e-13 -1.05708e-12 0)
(-1.80541e-13 -1.19685e-12 0)
(-2.4427e-13 -1.3085e-12 0)
(-3.13653e-13 -1.39456e-12 0)
(-3.87529e-13 -1.45718e-12 0)
(-4.64719e-13 -1.49833e-12 0)
(-5.43851e-13 -1.5198e-12 0)
(-6.23908e-13 -1.52312e-12 0)
(-7.03904e-13 -1.50975e-12 0)
(-7.82908e-13 -1.48105e-12 0)
(-8.6009e-13 -1.43823e-12 0)