/*--------------------------------*- C++ -*----------------------------------*\
| =========                 |                                                 |
| \\      /  F ield         | OpenFOAM: The Open Source CFD Toolbox           |
|  \\    /   O peration     | Version:  5.0                                   |
|   \\  /    A nd           | Web:      www.OpenFOAM.org                      |
|    \\/     M anipulation  |                                                 |
\*---------------------------------------------------------------------------*/
FoamFile
{
    version     2.0;
    format      ascii;
    class       volVectorField;
    location    "2.9";
    object      U;
}
// * * * * * * * * * * * * * * * * * * * * * * * * * * * * * * * * * * * * * //

dimensions      [0 1 -1 0 0 0 0];

internalField   nonuniform List<vector> 
25
(
(1 -4.65472e-10 -1.62881e-29)
(1 1.9858e-09 -3.2324e-23)
(1 2.79614e-09 -3.2324e-23)
(1 6.85047e-09 -3.2324e-23)
(1 8.61156e-10 -1.35606e-30)
(0.92 -3.31038e-09 -7.11298e-37)
(0.92 8.09165e-09 2.79794e-23)
(0.92 6.54676e-09 1.11969e-28)
(0.92 2.39872e-08 -2.79792e-23)
(0.92 2.97127e-09 -2.79794e-23)
(0.76 -8.0558e-09 -2.73702e-23)
(0.76 1.40836e-08 2.77279e-28)
(0.76 5.16563e-09 2.79794e-23)
(0.76 3.81412e-08 -5.59588e-23)
(0.76 5.23976e-09 -5.59588e-23)
(0.52 -1.07217e-08 5.48444e-23)
(0.52 1.59403e-08 2.79798e-23)
(0.52 1.54475e-09 -5.59588e-23)
(0.52 4.23605e-08 -2.79805e-23)
(0.52 5.10045e-09 5.59588e-23)
(0.2 -4.60058e-09 3.93808e-23)
(0.2 6.40592e-09 1.99393e-23)
(0.2 -1.06814e-10 -5.9818e-23)
(0.2 1.69891e-08 -1.99395e-23)
(0.2 1.82629e-09 3.98787e-23)
)
;

boundaryField
{
    top
    {
        type            fixedValue;
        value           uniform (0 0 0);
    }
    bottom
    {
        type            symmetryPlane;
    }
    inlet
    {
        type            pressureInletVelocity;
        value           nonuniform List<vector> 5((1 -0 -0) (0.92 -0 -0) (0.76 -0 -0) (0.52 -0 -0) (0.2 -0 -0));
    }
    outlet
    {
        type            inletOutlet;
        inletValue      nonuniform 0();
        value           nonuniform 0();
    }
    frontAndBack
    {
        type            empty;
    }
    procBoundary0to1
    {
        type            processor;
        value           nonuniform List<vector> 5((1 -8.10573e-09 6.4648e-23) (0.92 -2.91642e-08 -2.79792e-23) (0.76 -4.64064e-08 2.79789e-23) (0.52 -5.03626e-08 5.59581e-23) (0.2 -1.99668e-08 3.98788e-23));
    }
}


// ************************************************************************* //
