/*--------------------------------*- C++ -*----------------------------------*\
| =========                 |                                                 |
| \\      /  F ield         | OpenFOAM: The Open Source CFD Toolbox           |
|  \\    /   O peration     | Version:  5.0                                   |
|   \\  /    A nd           | Web:      www.OpenFOAM.org                      |
|    \\/     M anipulation  |                                                 |
\*---------------------------------------------------------------------------*/
FoamFile
{
    version     2.0;
    format      ascii;
    class       volScalarField;
    location    "435";
    object      p;
}
// * * * * * * * * * * * * * * * * * * * * * * * * * * * * * * * * * * * * * //

dimensions      [0 2 -2 0 0 0 0];

internalField   nonuniform List<scalar> 
1568
(
3.00065e-18
2.20087e-17
3.65315e-17
4.52424e-17
5.28204e-17
5.95326e-17
6.50888e-17
7.01186e-17
7.47631e-17
7.90694e-17
8.3155e-17
8.71279e-17
9.10432e-17
9.49236e-17
9.882e-17
1.02767e-16
1.06775e-16
1.10859e-16
1.15027e-16
1.19286e-16
1.23628e-16
1.28063e-16
1.32403e-16
1.35635e-16
1.3811e-16
1.41356e-16
1.46627e-16
1.54252e-16
1.62903e-16
1.70554e-16
1.75855e-16
1.79132e-16
1.81605e-16
1.84818e-16
1.89149e-16
1.93591e-16
1.97926e-16
2.02193e-16
2.06361e-16
2.10448e-16
2.14458e-16
2.18412e-16
2.2231e-16
2.26204e-16
2.30114e-16
2.34095e-16
2.38203e-16
2.42527e-16
2.47141e-16
2.5219e-16
2.57865e-16
2.64391e-16
2.71912e-16
2.80851e-16
2.94949e-16
3.1109e-16
1.4068e-17
2.40512e-17
4.35361e-17
4.93056e-17
5.47842e-17
6.373e-17
6.88752e-17
7.36094e-17
7.86224e-17
8.3034e-17
8.70055e-17
9.09088e-17
9.48334e-17
9.86145e-17
1.02404e-16
1.0622e-16
1.10056e-16
1.13949e-16
1.17909e-16
1.21949e-16
1.26061e-16
1.30274e-16
1.34675e-16
1.39652e-16
1.44577e-16
1.49111e-16
1.53743e-16
1.57409e-16
1.59821e-16
1.63552e-16
1.68165e-16
1.7265e-16
1.77469e-16
1.82504e-16
1.86912e-16
1.91186e-16
1.95225e-16
1.99332e-16
2.03257e-16
2.07153e-16
2.11014e-16
2.14897e-16
2.18646e-16
2.22459e-16
2.26294e-16
2.30268e-16
2.34394e-16
2.38762e-16
2.43372e-16
2.48603e-16
2.54484e-16
2.61018e-16
2.68429e-16
2.76236e-16
2.92602e-16
3.03162e-16
2.46601e-17
3.55538e-17
4.32667e-17
5.53148e-17
6.31764e-17
6.8617e-17
7.39335e-17
7.98615e-17
8.43161e-17
8.8081e-17
9.26439e-17
9.66483e-17
1.00075e-16
1.03761e-16
1.07445e-16
1.10903e-16
1.14497e-16
1.18116e-16
1.21779e-16
1.2541e-16
1.29145e-16
1.32903e-16
1.36745e-16
1.40562e-16
1.44093e-16
1.47443e-16
1.51591e-16
1.56261e-16
1.60979e-16
1.65547e-16
1.6969e-16
1.73167e-16
1.76863e-16
1.80657e-16
1.84406e-16
1.88097e-16
1.91949e-16
1.95493e-16
1.99179e-16
2.02827e-16
2.06314e-16
2.09706e-16
2.13434e-16
2.17036e-16
2.208e-16
2.24667e-16
2.28716e-16
2.33027e-16
2.37808e-16
2.42965e-16
2.48434e-16
2.54577e-16
2.63247e-16
2.6996e-16
2.83818e-16
2.93243e-16
3.41113e-17
4.25645e-17
5.66252e-17
6.12722e-17
6.84785e-17
7.45116e-17
7.97074e-17
8.49578e-17
8.95236e-17
9.36691e-17
9.74752e-17
1.01038e-16
1.04685e-16
1.08266e-16
1.11533e-16
1.14954e-16
1.18337e-16
1.21646e-16
1.24954e-16
1.28435e-16
1.31849e-16
1.35291e-16
1.38703e-16
1.42186e-16
1.45513e-16
1.49001e-16
1.52684e-16
1.56637e-16
1.60609e-16
1.64605e-16
1.68327e-16
1.71659e-16
1.74894e-16
1.78323e-16
1.81863e-16
1.85293e-16
1.88729e-16
1.92182e-16
1.95501e-16
1.98865e-16
2.02309e-16
2.05796e-16
2.0915e-16
2.12592e-16
2.16166e-16
2.19869e-16
2.23715e-16
2.28017e-16
2.32491e-16
2.3713e-16
2.43216e-16
2.49713e-16
2.55521e-16
2.61787e-16
2.7582e-16
2.83518e-16
4.4347e-17
5.02827e-17
6.29211e-17
6.79629e-17
7.45629e-17
8.04394e-17
8.56205e-17
9.0213e-17
9.42629e-17
9.83686e-17
1.02071e-16
1.0557e-16
1.08952e-16
1.12128e-16
1.15277e-16
1.18453e-16
1.21538e-16
1.24663e-16
1.27791e-16
1.30912e-16
1.34045e-16
1.37231e-16
1.40446e-16
1.4371e-16
1.4693e-16
1.50237e-16
1.53579e-16
1.56928e-16
1.60258e-16
1.63627e-16
1.66994e-16
1.70349e-16
1.73613e-16
1.76862e-16
1.80102e-16
1.83279e-16
1.86362e-16
1.8952e-16
1.92636e-16
1.95708e-16
1.98767e-16
2.01871e-16
2.05013e-16
2.08299e-16
2.11636e-16
2.15169e-16
2.18935e-16
2.2279e-16
2.26992e-16
2.32039e-16
2.36939e-16
2.41754e-16
2.49377e-16
2.56075e-16
2.65728e-16
2.73056e-16
5.53967e-17
6.18655e-17
7.10176e-17
7.69692e-17
8.22421e-17
8.72573e-17
9.23107e-17
9.65668e-17
1.00262e-16
1.04029e-16
1.07518e-16
1.10735e-16
1.13804e-16
1.16825e-16
1.19801e-16
1.22619e-16
1.25418e-16
1.28245e-16
1.31078e-16
1.33852e-16
1.36683e-16
1.39553e-16
1.42413e-16
1.45275e-16
1.48178e-16
1.51065e-16
1.54053e-16
1.57107e-16
1.60157e-16
1.63179e-16
1.66135e-16
1.69042e-16
1.71968e-16
1.74838e-16
1.77649e-16
1.80502e-16
1.83352e-16
1.86156e-16
1.88984e-16
1.91823e-16
1.94649e-16
1.97511e-16
2.00469e-16
2.03444e-16
2.06563e-16
2.09811e-16
2.13158e-16
2.16964e-16
2.21037e-16
2.24831e-16
2.29827e-16
2.35861e-16
2.40653e-16
2.45015e-16
2.56249e-16
2.62204e-16
6.66433e-17
7.21622e-17
8.0322e-17
8.51446e-17
9.01657e-17
9.49853e-17
9.90919e-17
1.02857e-16
1.06593e-16
1.09959e-16
1.13003e-16
1.15913e-16
1.18742e-16
1.21467e-16
1.24074e-16
1.26656e-16
1.29233e-16
1.31743e-16
1.34237e-16
1.36775e-16
1.39306e-16
1.41804e-16
1.4433e-16
1.46881e-16
1.49449e-16
1.52031e-16
1.54654e-16
1.57293e-16
1.59952e-16
1.62621e-16
1.65229e-16
1.67777e-16
1.70331e-16
1.72879e-16
1.75407e-16
1.77932e-16
1.80479e-16
1.82976e-16
1.85472e-16
1.88001e-16
1.90567e-16
1.93157e-16
1.95792e-16
1.98491e-16
2.01316e-16
2.04292e-16
2.07411e-16
2.10711e-16
2.14265e-16
2.18368e-16
2.22665e-16
2.26486e-16
2.32307e-16
2.37893e-16
2.45338e-16
2.50761e-16
7.82599e-17
8.26937e-17
8.99776e-17
9.40663e-17
9.85341e-17
1.02627e-16
1.0617e-16
1.09601e-16
1.12907e-16
1.15749e-16
1.18507e-16
1.21188e-16
1.23701e-16
1.26076e-16
1.28392e-16
1.30684e-16
1.32928e-16
1.35137e-16
1.37341e-16
1.39546e-16
1.41739e-16
1.43948e-16
1.46173e-16
1.48407e-16
1.50638e-16
1.52903e-16
1.55178e-16
1.57466e-16
1.59763e-16
1.62044e-16
1.64344e-16
1.66631e-16
1.68852e-16
1.7108e-16
1.7333e-16
1.75532e-16
1.77709e-16
1.79918e-16
1.82123e-16
1.84335e-16
1.86564e-16
1.88826e-16
1.91149e-16
1.93564e-16
1.96065e-16
1.98685e-16
2.01423e-16
2.04448e-16
2.0768e-16
2.10868e-16
2.14693e-16
2.1919e-16
2.23234e-16
2.2646e-16
2.3466e-16
2.3911e-16
9.02017e-17
9.39972e-17
1.00256e-16
1.03637e-16
1.07255e-16
1.10601e-16
1.13897e-16
1.16888e-16
1.19541e-16
1.22078e-16
1.24505e-16
1.26728e-16
1.28882e-16
1.30967e-16
1.32977e-16
1.34926e-16
1.36829e-16
1.38734e-16
1.40624e-16
1.42478e-16
1.44344e-16
1.46247e-16
1.48117e-16
1.49998e-16
1.519e-16
1.5381e-16
1.55726e-16
1.57661e-16
1.59598e-16
1.61516e-16
1.63436e-16
1.65345e-16
1.67247e-16
1.6913e-16
1.71002e-16
1.72875e-16
1.74744e-16
1.76618e-16
1.78505e-16
1.80403e-16
1.82318e-16
1.84282e-16
1.86302e-16
1.88367e-16
1.90503e-16
1.92789e-16
1.95201e-16
1.97718e-16
2.00406e-16
2.0345e-16
2.06749e-16
2.09674e-16
2.13821e-16
2.17726e-16
2.23221e-16
2.27079e-16
1.02384e-16
1.0548e-16
1.10398e-16
1.13165e-16
1.16252e-16
1.1906e-16
1.21804e-16
1.24181e-16
1.26334e-16
1.28521e-16
1.30558e-16
1.32395e-16
1.34163e-16
1.35892e-16
1.37541e-16
1.39171e-16
1.40757e-16
1.42315e-16
1.43858e-16
1.45426e-16
1.46956e-16
1.48479e-16
1.50024e-16
1.51584e-16
1.53134e-16
1.54693e-16
1.56263e-16
1.57838e-16
1.59409e-16
1.60996e-16
1.62558e-16
1.6411e-16
1.65665e-16
1.67217e-16
1.68753e-16
1.70285e-16
1.71836e-16
1.73379e-16
1.74922e-16
1.76482e-16
1.78071e-16
1.79693e-16
1.81349e-16
1.83065e-16
1.84853e-16
1.86734e-16
1.88685e-16
1.90858e-16
1.93185e-16
1.95431e-16
1.98144e-16
2.01112e-16
2.04184e-16
2.06457e-16
2.11867e-16
2.149e-16
1.14725e-16
1.17134e-16
1.20872e-16
1.23136e-16
1.25542e-16
1.27685e-16
1.29752e-16
1.31609e-16
1.33426e-16
1.3511e-16
1.36615e-16
1.38105e-16
1.39541e-16
1.40881e-16
1.42172e-16
1.43449e-16
1.44701e-16
1.45921e-16
1.47126e-16
1.48326e-16
1.4954e-16
1.5073e-16
1.51937e-16
1.53132e-16
1.54335e-16
1.55548e-16
1.56789e-16
1.58021e-16
1.59252e-16
1.60477e-16
1.61685e-16
1.62902e-16
1.64116e-16
1.6532e-16
1.66524e-16
1.67724e-16
1.68921e-16
1.7012e-16
1.71329e-16
1.72554e-16
1.73798e-16
1.75057e-16
1.76349e-16
1.77711e-16
1.79132e-16
1.80589e-16
1.8216e-16
1.83836e-16
1.85559e-16
1.87463e-16
1.89745e-16
1.91626e-16
1.94008e-16
1.96488e-16
2.00112e-16
2.0249e-16
1.27227e-16
1.28949e-16
1.31654e-16
1.33226e-16
1.3494e-16
1.36449e-16
1.37964e-16
1.39318e-16
1.406e-16
1.41734e-16
1.42888e-16
1.43896e-16
1.44894e-16
1.45959e-16
1.46911e-16
1.47801e-16
1.48687e-16
1.49568e-16
1.50449e-16
1.5129e-16
1.52155e-16
1.53015e-16
1.53879e-16
1.54744e-16
1.5563e-16
1.56488e-16
1.57333e-16
1.58168e-16
1.5903e-16
1.59909e-16
1.60798e-16
1.61668e-16
1.62521e-16
1.63373e-16
1.64227e-16
1.65099e-16
1.65946e-16
1.668e-16
1.67672e-16
1.68548e-16
1.69435e-16
1.70348e-16
1.71286e-16
1.72341e-16
1.7334e-16
1.74359e-16
1.75505e-16
1.76623e-16
1.77987e-16
1.79289e-16
1.80657e-16
1.82256e-16
1.84293e-16
1.85497e-16
1.8825e-16
1.89979e-16
1.39806e-16
1.40855e-16
1.42497e-16
1.43405e-16
1.44448e-16
1.45346e-16
1.46299e-16
1.4712e-16
1.47826e-16
1.48356e-16
1.49657e-16
1.50343e-16
1.50306e-16
1.51122e-16
1.51661e-16
1.52184e-16
1.52726e-16
1.5325e-16
1.53767e-16
1.54282e-16
1.54782e-16
1.55301e-16
1.558e-16
1.56295e-16
1.56792e-16
1.5731e-16
1.57843e-16
1.58401e-16
1.5893e-16
1.59418e-16
1.59914e-16
1.60425e-16
1.60936e-16
1.61456e-16
1.61962e-16
1.62453e-16
1.6297e-16
1.63488e-16
1.63999e-16
1.64517e-16
1.65052e-16
1.65581e-16
1.66124e-16
1.66915e-16
1.66895e-16
1.67592e-16
1.68849e-16
1.69438e-16
1.701e-16
1.70801e-16
1.72081e-16
1.72859e-16
1.7355e-16
1.74615e-16
1.7642e-16
1.77369e-16
1.52466e-16
1.52823e-16
1.53361e-16
1.53691e-16
1.54065e-16
1.54326e-16
1.54671e-16
1.54955e-16
1.55282e-16
1.55438e-16
1.55826e-16
1.5592e-16
1.55943e-16
1.56475e-16
1.56469e-16
1.56587e-16
1.56772e-16
1.56929e-16
1.57078e-16
1.57252e-16
1.57419e-16
1.57577e-16
1.57738e-16
1.57917e-16
1.58075e-16
1.58243e-16
1.58389e-16
1.58534e-16
1.58694e-16
1.58868e-16
1.59034e-16
1.59202e-16
1.59357e-16
1.59513e-16
1.59687e-16
1.59833e-16
1.60006e-16
1.60162e-16
1.60315e-16
1.60487e-16
1.60657e-16
1.60752e-16
1.60773e-16
1.6129e-16
1.61304e-16
1.6142e-16
1.6177e-16
1.619e-16
1.62311e-16
1.62661e-16
1.62797e-16
1.6282e-16
1.6392e-16
1.64002e-16
1.64277e-16
1.6469e-16
1.65131e-16
1.64832e-16
1.64313e-16
1.63988e-16
1.63705e-16
1.63309e-16
1.63065e-16
1.62734e-16
1.62386e-16
1.62254e-16
1.61827e-16
1.61714e-16
1.61692e-16
1.61139e-16
1.61112e-16
1.60991e-16
1.6079e-16
1.60599e-16
1.60423e-16
1.60243e-16
1.60052e-16
1.59853e-16
1.59675e-16
1.59499e-16
1.59313e-16
1.59117e-16
1.58928e-16
1.58714e-16
1.58513e-16
1.5834e-16
1.58158e-16
1.57962e-16
1.57774e-16
1.57575e-16
1.57388e-16
1.57213e-16
1.57017e-16
1.56821e-16
1.56642e-16
1.5645e-16
1.56256e-16
1.56124e-16
1.56099e-16
1.55554e-16
1.55511e-16
1.55385e-16
1.54994e-16
1.54889e-16
1.54447e-16
1.53971e-16
1.54091e-16
1.53732e-16
1.52989e-16
1.52422e-16
1.52481e-16
1.52024e-16
1.77805e-16
1.76858e-16
1.75213e-16
1.74246e-16
1.73333e-16
1.72285e-16
1.7147e-16
1.70604e-16
1.69832e-16
1.69332e-16
1.68021e-16
1.67316e-16
1.67341e-16
1.66504e-16
1.65953e-16
1.65406e-16
1.64839e-16
1.64307e-16
1.6377e-16
1.6322e-16
1.62682e-16
1.6217e-16
1.61616e-16
1.61054e-16
1.60504e-16
1.59964e-16
1.59444e-16
1.5894e-16
1.58397e-16
1.57835e-16
1.5726e-16
1.56719e-16
1.56185e-16
1.55659e-16
1.55099e-16
1.54572e-16
1.54021e-16
1.53497e-16
1.52953e-16
1.52402e-16
1.51835e-16
1.513e-16
1.50719e-16
1.49888e-16
1.49908e-16
1.49229e-16
1.47882e-16
1.47307e-16
1.46661e-16
1.4593e-16
1.4477e-16
1.43437e-16
1.43459e-16
1.42257e-16
1.40254e-16
1.39327e-16
1.90403e-16
1.88739e-16
1.86054e-16
1.84492e-16
1.82876e-16
1.81167e-16
1.79792e-16
1.7839e-16
1.77085e-16
1.75978e-16
1.74772e-16
1.73744e-16
1.72745e-16
1.71658e-16
1.70708e-16
1.69769e-16
1.68869e-16
1.67961e-16
1.67079e-16
1.66187e-16
1.65318e-16
1.64422e-16
1.63554e-16
1.6268e-16
1.61816e-16
1.60907e-16
1.59991e-16
1.59049e-16
1.58157e-16
1.57259e-16
1.56391e-16
1.55496e-16
1.54604e-16
1.53703e-16
1.52834e-16
1.51941e-16
1.51069e-16
1.50171e-16
1.49283e-16
1.48379e-16
1.47471e-16
1.46533e-16
1.45584e-16
1.44497e-16
1.43485e-16
1.42436e-16
1.41247e-16
1.4021e-16
1.38767e-16
1.37197e-16
1.36263e-16
1.34652e-16
1.32293e-16
1.30579e-16
1.28583e-16
1.26738e-16
2.02947e-16
2.00643e-16
1.96797e-16
1.94568e-16
1.92328e-16
1.8997e-16
1.87998e-16
1.86068e-16
1.84251e-16
1.82606e-16
1.81014e-16
1.79545e-16
1.78108e-16
1.76728e-16
1.7541e-16
1.74133e-16
1.72865e-16
1.71615e-16
1.70379e-16
1.69159e-16
1.67936e-16
1.66696e-16
1.65471e-16
1.64226e-16
1.62984e-16
1.61739e-16
1.6052e-16
1.59267e-16
1.58028e-16
1.56758e-16
1.55519e-16
1.54256e-16
1.53032e-16
1.51783e-16
1.50576e-16
1.49322e-16
1.48111e-16
1.46861e-16
1.45644e-16
1.44379e-16
1.43122e-16
1.41807e-16
1.40517e-16
1.39108e-16
1.37684e-16
1.36239e-16
1.34609e-16
1.3284e-16
1.31266e-16
1.29429e-16
1.26959e-16
1.24398e-16
1.23285e-16
1.20791e-16
1.16415e-16
1.14174e-16
2.15333e-16
2.12272e-16
2.07413e-16
2.045e-16
2.0161e-16
1.98635e-16
1.96078e-16
1.93616e-16
1.91319e-16
1.89238e-16
1.87188e-16
1.85308e-16
1.835e-16
1.81791e-16
1.80079e-16
1.7848e-16
1.76824e-16
1.75292e-16
1.73662e-16
1.72153e-16
1.70517e-16
1.69027e-16
1.67387e-16
1.65882e-16
1.64218e-16
1.62705e-16
1.61011e-16
1.59491e-16
1.57786e-16
1.5627e-16
1.54565e-16
1.53064e-16
1.5139e-16
1.49904e-16
1.48229e-16
1.46759e-16
1.45102e-16
1.43617e-16
1.4195e-16
1.40445e-16
1.38749e-16
1.37187e-16
1.35429e-16
1.3375e-16
1.31898e-16
1.30008e-16
1.27957e-16
1.26062e-16
1.23473e-16
1.20741e-16
1.18994e-16
1.1606e-16
1.12051e-16
1.09053e-16
1.0508e-16
1.01817e-16
2.27578e-16
2.23832e-16
2.17749e-16
2.14174e-16
2.10628e-16
2.06981e-16
2.03927e-16
2.00943e-16
1.98181e-16
1.9563e-16
1.93231e-16
1.90929e-16
1.88798e-16
1.86674e-16
1.84672e-16
1.82652e-16
1.80754e-16
1.78797e-16
1.76939e-16
1.74984e-16
1.73139e-16
1.71194e-16
1.69324e-16
1.67367e-16
1.65489e-16
1.63507e-16
1.61595e-16
1.59595e-16
1.57668e-16
1.55667e-16
1.53753e-16
1.51782e-16
1.49881e-16
1.47924e-16
1.46042e-16
1.4412e-16
1.42236e-16
1.40322e-16
1.38437e-16
1.36503e-16
1.34571e-16
1.32595e-16
1.30578e-16
1.28461e-16
1.26278e-16
1.24072e-16
1.21632e-16
1.18867e-16
1.16286e-16
1.13859e-16
1.09856e-16
1.05676e-16
1.03872e-16
1.00283e-16
9.31267e-17
8.9535e-17
2.39584e-16
2.35074e-16
2.2781e-16
2.23655e-16
2.19507e-16
2.15119e-16
2.1153e-16
2.08081e-16
2.04856e-16
2.01885e-16
1.99139e-16
1.96439e-16
1.93977e-16
1.91473e-16
1.89234e-16
1.86837e-16
1.84696e-16
1.82299e-16
1.80241e-16
1.77844e-16
1.75815e-16
1.73356e-16
1.71346e-16
1.6885e-16
1.66837e-16
1.64282e-16
1.62265e-16
1.59641e-16
1.57629e-16
1.54995e-16
1.53022e-16
1.50414e-16
1.48484e-16
1.45909e-16
1.4401e-16
1.41404e-16
1.39512e-16
1.36961e-16
1.35043e-16
1.32472e-16
1.30512e-16
1.27892e-16
1.25807e-16
1.23139e-16
1.20903e-16
1.1799e-16
1.15307e-16
1.12397e-16
1.09355e-16
1.04966e-16
1.02208e-16
9.8859e-17
9.28884e-17
8.80637e-17
8.24715e-17
7.76091e-17
2.51315e-16
2.45948e-16
2.3771e-16
2.32506e-16
2.27877e-16
2.23057e-16
2.18791e-16
2.14962e-16
2.11305e-16
2.08032e-16
2.04793e-16
2.01922e-16
1.99014e-16
1.96395e-16
1.93583e-16
1.91123e-16
1.88399e-16
1.86048e-16
1.83281e-16
1.80974e-16
1.78168e-16
1.75887e-16
1.73041e-16
1.7073e-16
1.67839e-16
1.65512e-16
1.6254e-16
1.60162e-16
1.57132e-16
1.54769e-16
1.5176e-16
1.49453e-16
1.46509e-16
1.4423e-16
1.41321e-16
1.39117e-16
1.36273e-16
1.33984e-16
1.31162e-16
1.289e-16
1.2608e-16
1.23723e-16
1.20842e-16
1.18299e-16
1.15222e-16
1.12418e-16
1.09256e-16
1.05911e-16
1.02005e-16
9.88465e-17
9.44592e-17
8.79756e-17
8.5208e-17
8.07028e-17
7.10223e-17
6.58163e-17
2.62705e-16
2.5649e-16
2.46884e-16
2.41123e-16
2.35729e-16
2.30333e-16
2.25635e-16
2.21364e-16
2.17332e-16
2.13702e-16
2.10194e-16
2.07001e-16
2.03763e-16
2.00861e-16
1.97786e-16
1.95074e-16
1.92e-16
1.89392e-16
1.86299e-16
1.83741e-16
1.80568e-16
1.78046e-16
1.74762e-16
1.7228e-16
1.6892e-16
1.66446e-16
1.62951e-16
1.60423e-16
1.56821e-16
1.54324e-16
1.50721e-16
1.48358e-16
1.44847e-16
1.42544e-16
1.39042e-16
1.36804e-16
1.33276e-16
1.3109e-16
1.27694e-16
1.25435e-16
1.21967e-16
1.19687e-16
1.1621e-16
1.1368e-16
1.10108e-16
1.07343e-16
1.0336e-16
1.00056e-16
9.59194e-17
9.15786e-17
8.64302e-17
8.2466e-17
7.61562e-17
6.91483e-17
6.08732e-17
5.45181e-17
2.73701e-16
2.66772e-16
2.55572e-16
2.49626e-16
2.43271e-16
2.37284e-16
2.32387e-16
2.27557e-16
2.23318e-16
2.19294e-16
2.15708e-16
2.12e-16
2.08844e-16
2.0535e-16
2.02444e-16
1.98972e-16
1.96221e-16
1.92664e-16
1.90024e-16
1.86323e-16
1.83747e-16
1.79888e-16
1.77351e-16
1.73363e-16
1.70844e-16
1.66735e-16
1.64165e-16
1.59895e-16
1.57391e-16
1.5307e-16
1.50674e-16
1.4648e-16
1.44187e-16
1.39992e-16
1.37692e-16
1.33457e-16
1.31237e-16
1.27213e-16
1.2481e-16
1.20816e-16
1.18474e-16
1.14498e-16
1.12014e-16
1.08088e-16
1.05334e-16
1.0122e-16
9.79559e-17
9.36266e-17
8.97134e-17
8.4655e-17
8.00656e-17
7.35058e-17
6.71475e-17
6.25699e-17
5.0391e-17
4.34949e-17
2.84089e-16
2.76043e-16
2.6294e-16
2.56657e-16
2.4988e-16
2.43495e-16
2.38192e-16
2.33187e-16
2.28656e-16
2.24498e-16
2.20565e-16
2.16818e-16
2.13281e-16
2.09734e-16
2.06334e-16
2.02875e-16
1.9958e-16
1.96082e-16
1.92787e-16
1.8922e-16
1.85894e-16
1.82255e-16
1.78923e-16
1.75186e-16
1.71984e-16
1.68262e-16
1.64793e-16
1.60543e-16
1.56784e-16
1.52502e-16
1.48993e-16
1.45047e-16
1.41829e-16
1.37976e-16
1.34853e-16
1.31099e-16
1.28027e-16
1.24122e-16
1.21181e-16
1.1757e-16
1.14625e-16
1.1086e-16
1.07795e-16
1.0396e-16
1.00677e-16
9.66387e-17
9.30892e-17
8.86257e-17
8.4242e-17
7.89407e-17
7.40783e-17
6.75338e-17
6.08272e-17
5.39078e-17
4.12201e-17
3.31698e-17
2.93921e-16
2.84811e-16
2.70531e-16
2.62937e-16
2.55862e-16
2.49014e-16
2.4322e-16
2.38221e-16
2.33378e-16
2.29142e-16
2.24919e-16
2.21225e-16
2.17244e-16
2.13874e-16
2.09951e-16
2.06745e-16
2.02712e-16
1.99596e-16
1.95369e-16
1.92318e-16
1.87851e-16
1.84828e-16
1.80191e-16
1.77243e-16
1.72838e-16
1.70374e-16
1.65126e-16
1.61486e-16
1.55701e-16
1.52159e-16
1.46812e-16
1.4475e-16
1.40171e-16
1.37548e-16
1.3241e-16
1.29843e-16
1.24789e-16
1.22319e-16
1.1756e-16
1.14814e-16
1.10025e-16
1.07545e-16
1.02948e-16
1.00171e-16
9.56048e-17
9.25134e-17
8.76472e-17
8.38866e-17
7.8769e-17
7.41226e-17
6.78053e-17
6.11654e-17
5.4459e-17
4.6582e-17
3.25302e-17
2.33687e-17
3.03804e-16
2.92968e-16
2.77192e-16
2.68887e-16
2.61654e-16
2.54978e-16
2.49224e-16
2.44053e-16
2.39364e-16
2.34996e-16
2.30881e-16
2.26887e-16
2.23031e-16
2.19179e-16
2.15394e-16
2.11527e-16
2.07685e-16
2.03729e-16
1.99772e-16
1.95656e-16
1.91552e-16
1.8727e-16
1.82854e-16
1.77771e-16
1.72819e-16
1.68238e-16
1.63617e-16
1.59891e-16
1.57415e-16
1.53677e-16
1.49046e-16
1.44374e-16
1.39367e-16
1.34294e-16
1.29919e-16
1.25633e-16
1.21551e-16
1.17433e-16
1.1344e-16
1.09571e-16
1.05789e-16
1.01905e-16
9.80861e-17
9.42615e-17
9.03836e-17
8.64055e-17
8.2282e-17
7.79329e-17
7.31776e-17
6.80429e-17
6.23484e-17
5.5662e-17
4.83004e-17
4.00671e-17
2.43604e-17
1.35031e-17
3.11724e-16
2.95513e-16
2.81449e-16
2.72486e-16
2.64951e-16
2.58414e-16
2.52749e-16
2.47683e-16
2.43054e-16
2.38724e-16
2.34606e-16
2.30606e-16
2.26687e-16
2.2277e-16
2.18855e-16
2.14874e-16
2.10852e-16
2.06725e-16
2.02543e-16
1.98237e-16
1.93882e-16
1.89392e-16
1.85052e-16
1.8179e-16
1.79303e-16
1.75976e-16
1.70668e-16
1.62961e-16
1.54294e-16
1.46595e-16
1.41308e-16
1.37989e-16
1.35508e-16
1.32227e-16
1.27895e-16
1.23387e-16
1.19044e-16
1.14721e-16
1.10543e-16
1.06401e-16
1.02389e-16
9.83844e-17
9.4482e-17
9.05502e-17
8.66388e-17
8.26211e-17
7.85144e-17
7.4171e-17
6.95421e-17
6.4463e-17
5.88113e-17
5.22748e-17
4.47344e-17
3.57854e-17
2.17387e-17
5.54778e-18
)
;

boundaryField
{
    top
    {
        type            zeroGradient;
    }
    bottom
    {
        type            zeroGradient;
    }
    rotatingWall
    {
        type            zeroGradient;
    }
    wall
    {
        type            zeroGradient;
    }
    frontAndBack
    {
        type            empty;
    }
}


// ************************************************************************* //
