/*--------------------------------*- C++ -*----------------------------------*\
| =========                 |                                                 |
| \\      /  F ield         | OpenFOAM: The Open Source CFD Toolbox           |
|  \\    /   O peration     | Version:  5.0                                   |
|   \\  /    A nd           | Web:      www.OpenFOAM.org                      |
|    \\/     M anipulation  |                                                 |
\*---------------------------------------------------------------------------*/
FoamFile
{
    version     2.0;
    format      ascii;
    class       surfaceScalarField;
    location    "512";
    object      phi;
}
// * * * * * * * * * * * * * * * * * * * * * * * * * * * * * * * * * * * * * //

dimensions      [0 3 -1 0 0 0 0];

internalField   nonuniform List<scalar> 
3052
(
3.19794e-26
-3.43144e-26
1.10639e-25
-7.86057e-26
2.27872e-25
-1.17299e-25
3.74976e-25
-1.47202e-25
5.46742e-25
-1.71859e-25
7.3901e-25
-1.92346e-25
9.4744e-25
-2.08497e-25
1.16834e-24
-2.20956e-25
1.39838e-24
-2.30097e-25
1.63441e-24
-2.36078e-25
1.87349e-24
-2.39117e-25
2.1129e-24
-2.39459e-25
2.35016e-24
-2.37292e-25
2.58289e-24
-2.32766e-25
2.80892e-24
-2.26064e-25
3.02625e-24
-2.17354e-25
3.23301e-24
-2.06787e-25
3.4275e-24
-1.94521e-25
3.60819e-24
-1.8071e-25
3.77368e-24
-1.65511e-25
3.92274e-24
-1.49074e-25
4.05427e-24
-1.31546e-25
4.16736e-24
-1.13095e-25
4.26079e-24
-9.34399e-26
4.33456e-24
-7.37791e-26
4.38857e-24
-5.40142e-26
4.42136e-24
-3.27966e-26
4.43228e-24
-1.09102e-26
4.42162e-24
1.06626e-26
4.38908e-24
3.25492e-26
4.33531e-24
5.37847e-26
4.26176e-24
7.35576e-26
4.16856e-24
9.32204e-26
4.05568e-24
1.12892e-25
3.92435e-24
1.31354e-25
3.77548e-24
1.48894e-25
3.61015e-24
1.65357e-25
3.42961e-24
1.80569e-25
3.23523e-24
1.94405e-25
3.02857e-24
2.06696e-25
2.81132e-24
2.17286e-25
2.58533e-24
2.26019e-25
2.35262e-24
2.32752e-25
2.11536e-24
2.37301e-25
1.87589e-24
2.39509e-25
1.63675e-24
2.3919e-25
1.40063e-24
2.36159e-25
1.17047e-24
2.30208e-25
9.49398e-25
2.21126e-25
7.40812e-25
2.08638e-25
5.48438e-25
1.92428e-25
3.76394e-25
1.72099e-25
2.29104e-25
1.47346e-25
1.11994e-25
1.17167e-25
3.35077e-26
7.85388e-26
3.35143e-26
2.78709e-26
-6.21087e-26
9.91329e-26
-1.50018e-25
2.0499e-25
-2.23433e-25
3.40366e-25
-2.82877e-25
4.99784e-25
-3.31547e-25
6.78277e-25
-3.71073e-25
8.7213e-25
-4.02553e-25
1.07782e-24
-4.2683e-25
1.29203e-24
-4.44471e-25
1.51181e-24
-4.56008e-25
1.73446e-24
-4.61902e-25
1.95742e-24
-4.62548e-25
2.17832e-24
-4.58308e-25
2.39498e-24
-4.49538e-25
2.60539e-24
-4.36571e-25
2.80766e-24
-4.19716e-25
3.00007e-24
-3.99281e-25
3.18104e-24
-3.7557e-25
3.34914e-24
-3.48873e-25
3.50305e-24
-3.19479e-25
3.64161e-24
-2.87678e-25
3.76378e-24
-2.53758e-25
3.86865e-24
-2.18006e-25
3.95589e-24
-1.80701e-25
4.025e-24
-1.42902e-25
4.07509e-24
-1.04112e-25
4.10569e-24
-6.33971e-26
4.11612e-24
-2.13256e-26
4.10593e-24
2.08741e-26
4.07555e-24
6.296e-26
4.02567e-24
1.037e-25
3.95677e-24
1.42506e-25
3.86973e-24
1.80312e-25
3.76505e-24
2.17637e-25
3.64305e-24
2.53417e-25
3.50466e-24
2.87363e-25
3.3509e-24
3.192e-25
3.18293e-24
3.48628e-25
3.00207e-24
3.75368e-25
2.80975e-24
3.99121e-25
2.60754e-24
4.19603e-25
2.39718e-24
4.36506e-25
2.18053e-24
4.49527e-25
1.95961e-24
4.58344e-25
1.73663e-24
4.62634e-25
1.51392e-24
4.62041e-25
1.29404e-24
4.56197e-25
1.07971e-24
4.44695e-25
8.73916e-25
4.27085e-25
6.79885e-25
4.02839e-25
5.01131e-25
3.71357e-25
3.4161e-25
3.31799e-25
2.06032e-25
2.83102e-25
9.98069e-26
2.23561e-25
2.83486e-26
1.50152e-25
6.18714e-26
2.26051e-26
-8.47509e-26
8.4919e-26
-2.12465e-25
1.80681e-25
-3.19415e-25
3.04291e-25
-4.06734e-25
4.50586e-25
-4.78079e-25
6.15324e-25
-5.36023e-25
7.94601e-25
-5.82018e-25
9.84967e-25
-6.17364e-25
1.18338e-24
-6.43039e-25
1.38704e-24
-6.59808e-25
1.59335e-24
-6.68342e-25
1.79994e-24
-6.69248e-25
2.00461e-24
-6.63089e-25
2.20533e-24
-6.50361e-25
2.40022e-24
-6.3155e-25
2.58754e-24
-6.07121e-25
2.76571e-24
-5.77524e-25
2.93326e-24
-5.43186e-25
3.08887e-24
-5.04539e-25
3.23134e-24
-4.62001e-25
3.35961e-24
-4.15992e-25
3.47274e-24
-3.66932e-25
3.56997e-24
-3.15262e-25
3.65075e-24
-2.61503e-25
3.71414e-24
-2.06297e-25
3.7595e-24
-1.4948e-25
3.78685e-24
-9.0746e-26
3.79612e-24
-3.05853e-26
3.78704e-24
2.99787e-26
3.75987e-24
9.01516e-26
3.7147e-24
1.48909e-25
3.6515e-24
2.05749e-25
3.57088e-24
2.60977e-25
3.47381e-24
3.14762e-25
3.36083e-24
3.66465e-25
3.2327e-24
4.15566e-25
3.09035e-24
4.61622e-25
2.93485e-24
5.04211e-25
2.7674e-24
5.42914e-25
2.5893e-24
5.77313e-25
2.40204e-24
6.06974e-25
2.20718e-24
6.31469e-25
2.00648e-24
6.50348e-25
1.8018e-24
6.6315e-25
1.59518e-24
6.69383e-25
1.38881e-24
6.68542e-25
1.18508e-24
6.6007e-25
9.86561e-25
6.43359e-25
7.96057e-25
6.17741e-25
6.16631e-25
5.82423e-25
4.51735e-25
5.36413e-25
3.05179e-25
4.78515e-25
1.81354e-25
4.07088e-25
8.53437e-26
3.19753e-25
2.29704e-26
2.1264e-25
8.48495e-26
1.95446e-26
-1.04296e-25
7.4122e-26
-2.67164e-25
1.59525e-25
-4.04997e-25
2.71009e-25
-5.18419e-25
4.04065e-25
-6.11334e-25
5.54443e-25
-6.86584e-25
7.18605e-25
-7.46346e-25
8.9331e-25
-7.92219e-25
1.07561e-24
-8.25472e-25
1.26284e-24
-8.47169e-25
1.45261e-24
-8.5822e-25
1.64267e-24
-8.59417e-25
1.83097e-24
-8.51489e-25
2.01564e-24
-8.35113e-25
2.19492e-24
-8.10918e-25
2.36724e-24
-7.79506e-25
2.5311e-24
-7.41454e-25
2.68518e-24
-6.97327e-25
2.82827e-24
-6.47675e-25
2.95926e-24
-5.93039e-25
3.07719e-24
-5.3396e-25
3.18122e-24
-4.70983e-25
3.27059e-24
-4.04656e-25
3.34462e-24
-3.35553e-25
3.40253e-24
-2.64213e-25
3.44387e-24
-1.90827e-25
3.46866e-24
-1.15523e-25
3.47697e-24
-3.8892e-26
3.4688e-24
3.8168e-26
3.44416e-24
1.14814e-25
3.40296e-24
1.9014e-25
3.34519e-24
2.63552e-25
3.2713e-24
3.34918e-25
3.18205e-24
4.04058e-25
3.07814e-24
4.70426e-25
2.96032e-24
5.33454e-25
2.82942e-24
5.92587e-25
2.68642e-24
6.47286e-25
2.53241e-24
6.97005e-25
2.3686e-24
7.41205e-25
2.19634e-24
7.79334e-25
2.01707e-24
8.1083e-25
1.83242e-24
8.35108e-25
1.6441e-24
8.51571e-25
1.45402e-24
8.59584e-25
1.26421e-24
8.5847e-25
1.07691e-24
8.47502e-25
8.94518e-25
8.25881e-25
7.19714e-25
7.92682e-25
5.55433e-25
7.46844e-25
4.04866e-25
6.87123e-25
2.71642e-25
6.11886e-25
1.59963e-25
5.18912e-25
7.43713e-26
4.05471e-25
1.96599e-26
2.67486e-25
1.04516e-25
1.70087e-26
-1.21342e-25
6.48165e-26
-3.15079e-25
1.40627e-25
-4.80948e-25
2.40221e-25
-6.18172e-25
3.59777e-25
-7.31051e-25
4.95605e-25
-8.22565e-25
6.44363e-25
-8.95245e-25
8.03016e-25
-9.51001e-25
9.68828e-25
-9.91403e-25
1.13932e-24
-1.01777e-24
1.31221e-24
-1.03121e-24
1.48544e-24
-1.03274e-24
1.65712e-24
-1.02325e-24
1.82549e-24
-1.00356e-24
1.98896e-24
-9.74457e-25
2.14606e-24
-9.36669e-25
2.29545e-24
-8.90898e-25
2.43591e-24
-8.37831e-25
2.56632e-24
-7.78129e-25
2.68569e-24
-7.12448e-25
2.79313e-24
-6.41435e-25
2.88786e-24
-5.65737e-25
2.96918e-24
-4.85991e-25
3.03645e-24
-4.02833e-25
3.08908e-24
-3.16851e-25
3.12673e-24
-2.28475e-25
3.14933e-24
-1.38114e-25
3.15689e-24
-4.64501e-26
3.14942e-24
4.56541e-26
3.12693e-24
1.3733e-25
3.08938e-24
2.27711e-25
3.03685e-24
3.16118e-25
2.96967e-24
4.02133e-25
2.88844e-24
4.85331e-25
2.79379e-24
5.65123e-25
2.68643e-24
6.40876e-25
2.56712e-24
7.11952e-25
2.43677e-24
7.77702e-25
2.29636e-24
8.37481e-25
2.14701e-24
8.9063e-25
1.98994e-24
9.36487e-25
1.82649e-24
9.74365e-25
1.65813e-24
1.00357e-24
1.48645e-24
1.02335e-24
1.31319e-24
1.03294e-24
1.14026e-24
1.03151e-24
9.69725e-25
1.01815e-24
8.03858e-25
9.91865e-25
6.45127e-25
9.51533e-25
4.96246e-25
8.9585e-25
3.60297e-25
8.23197e-25
2.40647e-25
7.31658e-25
1.40858e-25
6.18823e-25
6.49667e-26
4.81514e-25
1.69515e-26
3.1558e-25
1.21473e-25
1.46573e-26
-1.36015e-25
5.65802e-26
-3.57101e-25
1.23148e-25
-5.47632e-25
2.11249e-25
-7.064e-25
3.17484e-25
-8.37416e-25
4.38678e-25
-9.43886e-25
5.71814e-25
-1.0285e-24
7.14136e-25
-1.09343e-24
8.63136e-25
-1.1405e-24
1.01652e-24
-1.17125e-24
1.1722e-24
-1.18698e-24
1.32827e-24
-1.18889e-24
1.48299e-24
-1.17804e-24
1.63475e-24
-1.15539e-24
1.78212e-24
-1.12188e-24
1.92374e-24
-1.07834e-24
2.0584e-24
-1.02561e-24
2.185e-24
-9.64471e-25
2.30253e-24
-8.95697e-25
2.4101e-24
-8.20043e-25
2.50689e-24
-7.38252e-25
2.59219e-24
-6.51059e-25
2.66538e-24
-5.59189e-25
2.72589e-24
-4.63349e-25
2.77325e-24
-3.64216e-25
2.80716e-24
-2.62389e-25
2.82754e-24
-1.58484e-25
2.83435e-24
-5.32545e-26
2.82759e-24
5.24259e-26
2.80728e-24
1.57666e-25
2.77342e-24
2.61593e-25
2.72612e-24
3.63448e-25
2.66566e-24
4.62617e-25
2.59253e-24
5.58499e-25
2.50728e-24
6.50421e-25
2.41053e-24
7.37671e-25
2.303e-24
8.19529e-25
2.1855e-24
8.95257e-25
2.05893e-24
9.6411e-25
1.9243e-24
1.02534e-24
1.78269e-24
1.07816e-24
1.63534e-24
1.12179e-24
1.48357e-24
1.15541e-24
1.32886e-24
1.17815e-24
1.17277e-24
1.18911e-24
1.01707e-24
1.1873e-24
8.63667e-25
1.17166e-24
7.14618e-25
1.14101e-24
5.72234e-25
1.09402e-24
4.39063e-25
1.02913e-24
3.17803e-25
9.44564e-25
2.1143e-25
8.38142e-25
1.23284e-25
7.07079e-25
5.66726e-26
5.48206e-25
1.47785e-26
3.57582e-25
1.36257e-25
1.26761e-26
-1.48728e-25
4.89527e-26
-3.93464e-25
1.06831e-25
-6.05605e-25
1.83736e-25
-7.83407e-25
2.76848e-25
-9.30633e-25
3.83421e-25
-1.05056e-24
5.00832e-25
-1.14601e-24
6.26631e-25
-1.21932e-24
7.58551e-25
-1.27251e-24
8.94515e-25
-1.30729e-24
1.03264e-24
-1.32518e-24
1.1712e-24
-1.32751e-24
1.30862e-24
-1.31551e-24
1.44345e-24
-1.29028e-24
1.57438e-24
-1.25286e-24
1.70023e-24
-1.20423e-24
1.81989e-24
-1.14531e-24
1.93237e-24
-1.07699e-24
2.03679e-24
-1.00014e-24
2.13234e-24
-9.15614e-25
2.2183e-24
-8.2423e-25
2.29403e-24
-7.26808e-25
2.35898e-24
-6.24151e-25
2.41267e-24
-5.17045e-25
2.45471e-24
-4.06257e-25
2.48484e-24
-2.9252e-25
2.50295e-24
-1.76588e-25
2.509e-24
-5.92926e-26
2.50297e-24
5.84669e-26
2.48488e-24
1.75773e-25
2.45477e-24
2.91725e-25
2.41275e-24
4.05491e-25
2.35908e-24
5.16315e-25
2.29415e-24
6.23465e-25
2.21843e-24
7.26173e-25
2.13249e-24
8.23655e-25
2.03696e-24
9.15106e-25
1.93255e-24
9.99711e-25
1.82008e-24
1.07664e-24
1.70043e-24
1.14504e-24
1.57459e-24
1.20406e-24
1.44366e-24
1.25279e-24
1.30883e-24
1.29031e-24
1.17142e-24
1.31564e-24
1.03286e-24
1.32774e-24
8.94725e-25
1.32551e-24
7.58742e-25
1.30772e-24
6.26815e-25
1.27303e-24
5.01007e-25
1.21992e-24
3.83544e-25
1.14668e-24
2.76928e-25
1.05127e-24
1.83827e-25
9.3133e-25
1.06893e-25
7.84098e-25
4.89506e-26
6.06271e-25
1.26686e-26
3.93911e-25
1.48929e-25
1.08209e-26
-1.59565e-25
4.17559e-26
-4.24477e-25
9.13274e-26
-6.55255e-25
1.5735e-25
-8.49511e-25
2.37552e-25
-1.01092e-24
3.29614e-25
-1.14271e-24
4.31279e-25
-1.24775e-24
5.40417e-25
-1.32854e-24
6.55046e-25
-1.38721e-24
7.73336e-25
-1.42564e-24
8.93615e-25
-1.44552e-24
1.01434e-24
-1.4483e-24
1.13413e-24
-1.43534e-24
1.2517e-24
-1.4079e-24
1.36589e-24
-1.3671e-24
1.47566e-24
-1.31403e-24
1.58003e-24
-1.24971e-24
1.67814e-24
-1.17513e-24
1.7692e-24
-1.09123e-24
1.85252e-24
-9.98951e-25
1.92746e-24
-8.99188e-25
1.99348e-24
-7.92833e-25
2.05008e-24
-6.80762e-25
2.09687e-24
-5.63837e-25
2.13351e-24
-4.42905e-25
2.1598e-24
-3.18805e-25
2.17561e-24
-1.92388e-25
2.18087e-24
-6.45522e-26
2.17559e-24
6.37626e-26
2.15977e-24
1.91607e-25
2.13347e-24
3.18043e-25
2.09681e-24
4.42171e-25
2.05002e-24
5.63138e-25
1.9934e-24
6.80106e-25
1.92738e-24
7.92227e-25
1.85243e-24
8.98639e-25
1.7691e-24
9.98468e-25
1.67803e-24
1.09082e-24
1.57992e-24
1.1748e-24
1.47555e-24
1.24946e-24
1.36578e-24
1.31387e-24
1.25159e-24
1.36703e-24
1.13402e-24
1.40793e-24
1.01424e-24
1.43548e-24
8.9352e-25
1.44853e-24
7.7325e-25
1.44585e-24
6.54974e-25
1.42607e-24
5.4035e-25
1.38772e-24
4.31211e-25
1.32913e-24
3.29571e-25
1.24839e-24
2.37526e-25
1.14339e-24
1.57296e-25
1.01164e-24
9.12844e-26
8.50187e-25
4.17722e-26
6.55825e-25
1.08386e-26
4.24927e-25
1.59771e-25
9.01707e-27
-1.68612e-25
3.48989e-26
-4.50419e-25
7.64208e-26
-6.96839e-25
1.31863e-25
-9.05016e-25
1.99372e-25
-1.07849e-24
2.77034e-25
-1.22043e-24
3.6297e-25
-1.33375e-24
4.55381e-25
-1.421e-24
5.52571e-25
-1.48445e-24
6.52972e-25
-1.5261e-24
7.55153e-25
-1.54774e-24
8.5778e-25
-1.55097e-24
9.59643e-25
-1.53724e-24
1.05966e-24
-1.50794e-24
1.15682e-24
-1.46429e-24
1.25022e-24
-1.40745e-24
1.33904e-24
-1.33855e-24
1.42252e-24
-1.25863e-24
1.50001e-24
-1.16874e-24
1.5709e-24
-1.06985e-24
1.63465e-24
-9.62951e-25
1.69079e-24
-8.48989e-25
1.73893e-24
-7.28906e-25
1.77872e-24
-6.0363e-25
1.8099e-24
-4.7408e-25
1.83227e-24
-3.41172e-25
1.84572e-24
-2.05833e-25
1.85019e-24
-6.90194e-26
1.84568e-24
6.82917e-26
1.83218e-24
2.05114e-25
1.80977e-24
3.40469e-25
1.77856e-24
4.73402e-25
1.73873e-24
6.02986e-25
1.69056e-24
7.28302e-25
1.63438e-24
8.48432e-25
1.5706e-24
9.62448e-25
1.49969e-24
1.06941e-24
1.42218e-24
1.16836e-24
1.33868e-24
1.25833e-24
1.24985e-24
1.33833e-24
1.15644e-24
1.40732e-24
1.05928e-24
1.46424e-24
9.59268e-25
1.50798e-24
8.57416e-25
1.53738e-24
7.54806e-25
1.55119e-24
6.52646e-25
1.54806e-24
5.52267e-25
1.5265e-24
4.5511e-25
1.48493e-24
3.62742e-25
1.42156e-24
2.76832e-25
1.33436e-24
1.99201e-25
1.22108e-24
1.31762e-25
1.07913e-24
7.636e-26
9.05642e-25
3.48679e-26
6.9741e-25
8.9955e-27
4.50819e-25
1.68769e-25
7.30063e-27
-1.75922e-25
2.82849e-26
-4.71452e-25
6.19932e-26
-7.30593e-25
1.07086e-25
-9.50155e-25
1.62087e-25
-1.13354e-24
2.25471e-25
-1.28386e-24
2.95722e-25
-1.40404e-24
3.71371e-25
-1.4967e-24
4.51022e-25
-1.56414e-24
5.3338e-25
-1.60849e-24
6.17264e-25
-1.63166e-24
7.01556e-25
-1.63529e-24
7.8525e-25
-1.62097e-24
8.67455e-25
-1.59017e-24
9.4733e-25
-1.54419e-24
1.02412e-24
-1.48426e-24
1.09714e-24
-1.41159e-24
1.16578e-24
-1.32729e-24
1.22949e-24
-1.23245e-24
1.28776e-24
-1.12813e-24
1.34016e-24
-1.01536e-24
1.38631e-24
-8.95141e-25
1.42587e-24
-7.6847e-25
1.45857e-24
-6.36331e-25
1.48419e-24
-4.997e-25
1.50258e-24
-3.59556e-25
1.51363e-24
-2.16882e-25
1.5173e-24
-7.26804e-26
1.51357e-24
7.20358e-26
1.50245e-24
2.16246e-25
1.48399e-24
3.58935e-25
1.45831e-24
4.99102e-25
1.42555e-24
6.35761e-25
1.38593e-24
7.67936e-25
1.33974e-24
8.9465e-25
1.28729e-24
1.01492e-24
1.22898e-24
1.12775e-24
1.16524e-24
1.23213e-24
1.09657e-24
1.32703e-24
1.02353e-24
1.4114e-24
9.46729e-25
1.48415e-24
8.6685e-25
1.54415e-24
7.84653e-25
1.59022e-24
7.00975e-25
1.62109e-24
6.16706e-25
1.6355e-24
5.32855e-25
1.63195e-24
4.50541e-25
1.60886e-24
3.7094e-25
1.56458e-24
2.95344e-25
1.4972e-24
2.25161e-25
1.40459e-24
1.61852e-25
1.28443e-24
1.06904e-25
1.13413e-24
6.18813e-26
9.50714e-25
2.82431e-26
7.31057e-25
7.31037e-27
4.71811e-25
1.76081e-25
5.63463e-27
-1.81576e-25
2.18564e-26
-4.87701e-25
4.79313e-26
-7.56696e-25
8.28546e-26
-9.85107e-25
1.25507e-25
-1.17622e-24
1.74729e-25
-1.33311e-24
2.29347e-25
-1.45869e-24
2.88224e-25
-1.5556e-24
3.50272e-25
-1.62622e-24
4.14477e-25
-1.67272e-24
4.79904e-25
-1.69711e-24
5.4566e-25
-1.70107e-24
6.10992e-25
-1.68632e-24
6.75179e-25
-1.65438e-24
7.37558e-25
-1.60658e-24
7.97527e-25
-1.54425e-24
8.54554e-25
-1.46862e-24
9.08157e-25
-1.3809e-24
9.57903e-25
-1.2822e-24
1.0034e-24
-1.17364e-24
1.04432e-24
-1.05628e-24
1.08034e-24
-9.31168e-25
1.11123e-24
-7.99352e-25
1.13675e-24
-6.61855e-25
1.15675e-24
-5.19698e-25
1.17111e-24
-3.73905e-25
1.17973e-24
-2.25501e-25
1.18258e-24
-7.55235e-26
1.17964e-24
7.49812e-26
1.17093e-24
2.24964e-25
1.1565e-24
3.73381e-25
1.13642e-24
5.19194e-25
1.11081e-24
6.61376e-25
1.07986e-24
7.98904e-25
1.04377e-24
9.30757e-25
1.00279e-24
1.05591e-24
9.57241e-25
1.17332e-24
9.0745e-25
1.28193e-24
8.53812e-25
1.38069e-24
7.9676e-25
1.46847e-24
7.36776e-25
1.54416e-24
6.74393e-25
1.60656e-24
6.10214e-25
1.65442e-24
5.44901e-25
1.68643e-24
4.79178e-25
1.70125e-24
4.13796e-25
1.69736e-24
3.49644e-25
1.67304e-24
2.87661e-25
1.62659e-24
2.28864e-25
1.55602e-24
1.7433e-25
1.45916e-24
1.25189e-25
1.3336e-24
8.2633e-26
1.17671e-24
4.77993e-26
9.85569e-25
2.18e-26
7.57121e-25
5.61268e-27
4.87993e-25
1.81695e-25
4.01201e-27
-1.85587e-25
1.55598e-26
-4.99265e-25
3.41369e-26
-7.75287e-25
5.90325e-26
-1.01002e-24
8.94628e-26
-1.20666e-24
1.24607e-25
-1.36827e-24
1.63638e-25
-1.49774e-24
2.05749e-25
-1.59772e-24
2.50157e-25
-1.67064e-24
2.96113e-25
-1.71869e-24
3.42978e-25
-1.74399e-24
3.90071e-25
-1.74817e-24
4.36886e-25
-1.73314e-24
4.82891e-25
-1.70039e-24
5.27601e-25
-1.6513e-24
5.7058e-25
-1.58723e-24
6.11449e-25
-1.5095e-24
6.49863e-25
-1.41932e-24
6.85512e-25
-1.31785e-24
7.18116e-25
-1.20624e-24
7.4743e-25
-1.08559e-24
7.73239e-25
-9.56976e-25
7.9536e-25
-8.21471e-25
8.13641e-25
-6.80133e-25
8.27962e-25
-5.34016e-25
8.38234e-25
-3.84172e-25
8.44399e-25
-2.31661e-25
8.46424e-25
-7.75425e-26
8.44298e-25
7.71136e-26
8.38031e-25
2.31238e-25
8.2766e-25
3.8376e-25
8.13243e-25
5.33619e-25
7.94872e-25
6.79756e-25
7.72667e-25
8.21119e-25
7.46779e-25
9.56654e-25
7.17395e-25
1.0853e-24
6.84729e-25
1.20599e-24
6.49028e-25
1.31765e-24
6.10572e-25
1.41915e-24
5.69673e-25
1.50938e-24
5.26676e-25
1.58716e-24
4.81962e-25
1.65128e-24
4.35965e-25
1.70043e-24
3.89174e-25
1.73323e-24
3.42119e-25
1.74832e-24
2.95305e-25
1.74419e-24
2.49418e-25
1.71894e-24
2.05092e-25
1.67093e-24
1.63066e-25
1.59806e-24
1.24131e-25
1.4981e-24
8.91006e-26
1.36865e-24
5.87771e-26
1.20705e-24
3.3976e-26
1.01039e-24
1.54762e-26
7.75599e-25
3.99782e-27
4.99508e-25
1.85693e-25
2.41032e-27
-1.88006e-25
9.35778e-27
-5.06207e-25
2.05255e-26
-7.8645e-25
3.54893e-26
-1.02498e-24
5.37829e-26
-1.22495e-24
7.49138e-26
-1.3894e-24
9.8384e-26
-1.5212e-24
1.23709e-25
-1.62305e-24
1.50477e-25
-1.6974e-24
1.78238e-25
-1.74645e-24
2.06332e-25
-1.77208e-24
2.34649e-25
-1.77649e-24
2.62912e-25
-1.7614e-24
2.90648e-25
-1.72812e-24
3.17534e-25
-1.67818e-24
3.43385e-25
-1.61308e-24
3.67975e-25
-1.53408e-24
3.91089e-25
-1.44243e-24
4.12538e-25
-1.3393e-24
4.32152e-25
-1.22585e-24
4.49784e-25
-1.10322e-24
4.65304e-25
-9.72491e-25
4.78601e-25
-8.34763e-25
4.89585e-25
-6.91112e-25
4.98185e-25
-5.42611e-25
5.04347e-25
-3.90329e-25
5.08035e-25
-2.35343e-25
5.09228e-25
-7.87306e-26
5.0792e-25
7.84258e-26
5.04121e-25
2.35042e-25
4.9785e-25
3.90036e-25
4.89144e-25
5.42329e-25
4.78059e-25
6.90846e-25
4.64666e-25
8.34516e-25
4.49059e-25
9.72266e-25
4.31349e-25
1.10302e-24
4.11666e-25
1.22568e-24
3.90159e-25
1.33916e-24
3.66998e-25
1.44232e-24
3.42375e-25
1.53401e-24
3.16504e-25
1.61304e-24
2.89614e-25
1.67818e-24
2.61886e-25
1.72816e-24
2.33648e-25
1.76148e-24
2.05373e-25
1.7766e-24
1.77342e-25
1.77222e-24
1.49654e-25
1.74663e-24
1.22971e-25
1.69762e-24
9.77514e-26
1.62328e-24
7.43998e-26
1.52146e-24
5.33736e-26
1.38968e-24
3.51889e-26
1.22523e-24
2.03413e-26
1.02523e-24
9.28535e-27
7.86692e-25
2.38633e-27
5.06378e-25
1.88079e-25
8.28875e-28
-1.88824e-25
3.20882e-27
-5.08571e-25
7.01923e-27
-7.90242e-25
1.21096e-26
-1.03005e-24
1.83164e-26
-1.23114e-24
2.54722e-26
-1.39653e-24
3.34037e-26
-1.52912e-24
4.19236e-26
-1.63155e-24
5.08424e-26
-1.70631e-24
6.00963e-26
-1.75569e-24
6.97154e-26
-1.78168e-24
7.9696e-26
-1.78645e-24
8.92552e-26
-1.77095e-24
9.83781e-26
-1.73723e-24
1.07333e-25
-1.68712e-24
1.16e-25
-1.62173e-24
1.24247e-25
-1.54232e-24
1.31998e-25
-1.45017e-24
1.39186e-25
-1.34648e-24
1.45756e-25
-1.23242e-24
1.51655e-25
-1.10911e-24
1.56841e-25
-9.77669e-25
1.61278e-25
-8.39193e-25
1.64935e-25
-6.94763e-25
1.67788e-25
-5.45457e-25
1.6982e-25
-3.92356e-25
1.71019e-25
-2.36538e-25
1.71379e-25
-7.90864e-26
1.70898e-25
7.89102e-26
1.69579e-25
2.36364e-25
1.6743e-25
3.92187e-25
1.64464e-25
5.45296e-25
1.607e-25
6.94611e-25
1.56163e-25
8.39054e-25
1.50884e-25
9.77544e-25
1.449e-25
1.109e-24
1.38257e-25
1.23232e-24
1.31006e-25
1.34641e-24
1.23207e-25
1.45011e-24
1.14923e-25
1.54229e-24
1.06236e-25
1.62172e-24
9.72756e-26
1.68713e-24
8.81649e-26
1.73726e-24
7.86333e-26
1.771e-24
6.86954e-26
1.78652e-24
5.9137e-26
1.78177e-24
4.99634e-26
1.75579e-24
4.11444e-26
1.70642e-24
3.27277e-26
1.63169e-24
2.49008e-26
1.52927e-24
1.788e-26
1.39668e-24
1.18098e-26
1.23129e-24
6.82478e-27
1.03021e-24
3.08996e-27
7.90375e-25
7.94188e-28
5.08687e-25
1.88872e-25
-7.51096e-28
-1.88071e-25
-2.92147e-27
-5.06362e-25
-6.45338e-27
-7.86674e-25
-1.122e-26
-1.02525e-24
-1.70772e-26
-1.22525e-24
-2.38717e-26
-1.38971e-24
-3.14421e-26
-1.52152e-24
-3.96085e-26
-1.62336e-24
-4.81875e-26
-1.6977e-24
-5.71169e-26
-1.74673e-24
-6.64297e-26
-1.77235e-24
-7.61265e-26
-1.77673e-24
-8.54232e-26
-1.76163e-24
-9.43104e-26
-1.72833e-24
-1.03057e-25
-1.67836e-24
-1.11543e-25
-1.61323e-24
-1.19635e-25
-1.53421e-24
-1.27257e-25
-1.44253e-24
-1.34344e-25
-1.33938e-24
-1.40838e-25
-1.22591e-24
-1.46688e-25
-1.10325e-24
-1.51849e-25
-9.72497e-25
-1.56286e-25
-8.34746e-25
-1.59968e-25
-6.91072e-25
-1.62869e-25
-5.42548e-25
-1.64972e-25
-3.90247e-25
-1.66264e-25
-2.35241e-25
-1.66737e-25
-7.86101e-26
-1.66388e-25
7.85638e-26
-1.65219e-25
2.35196e-25
-1.63237e-25
3.90204e-25
-1.60451e-25
5.42509e-25
-1.56881e-25
6.91037e-25
-1.52547e-25
8.34716e-25
-1.47481e-25
9.72472e-25
-1.41718e-25
1.10323e-24
-1.353e-25
1.2259e-24
-1.28277e-25
1.33937e-24
-1.20706e-25
1.44253e-24
-1.12651e-25
1.53422e-24
-1.04187e-25
1.61324e-24
-9.54463e-26
1.67837e-24
-8.65484e-26
1.72835e-24
-7.72219e-26
1.76165e-24
-6.74768e-26
1.77676e-24
-5.80992e-26
1.77237e-24
-4.90915e-26
1.74676e-24
-4.04251e-26
1.69773e-24
-3.21459e-26
1.62338e-24
-2.44411e-26
1.52154e-24
-1.75328e-26
1.38975e-24
-1.15693e-26
1.2253e-24
-6.67023e-27
1.02527e-24
-3.01072e-27
7.86723e-25
-7.76595e-28
5.06402e-25
1.88094e-25
-2.33595e-27
-1.85714e-25
-9.07789e-27
-4.99571e-25
-1.9972e-26
-7.75729e-25
-3.46214e-26
-1.01055e-24
-5.2576e-26
-1.20725e-24
-7.33584e-26
-1.36888e-24
-9.64786e-26
-1.49835e-24
-1.2146e-25
-1.59833e-24
-1.47896e-25
-1.67123e-24
-1.75342e-25
-1.71925e-24
-2.03137e-25
-1.74452e-24
-2.3118e-25
-1.74866e-24
-2.59198e-25
-1.73358e-24
-2.86711e-25
-1.70078e-24
-3.13396e-25
-1.65164e-24
-3.39073e-25
-1.58753e-24
-3.63513e-25
-1.50975e-24
-3.86504e-25
-1.41952e-24
-4.07854e-25
-1.31801e-24
-4.27395e-25
-1.20635e-24
-4.44978e-25
-1.08565e-24
-4.60474e-25
-9.56987e-25
-4.73773e-25
-8.21435e-25
-4.84781e-25
-6.80054e-25
-4.93427e-25
-5.33893e-25
-4.99657e-25
-3.8401e-25
-5.03434e-25
-2.31459e-25
-5.04737e-25
-7.73046e-26
-5.03558e-25
7.73863e-26
-4.99903e-25
2.3154e-25
-4.93792e-25
3.84091e-25
-4.85261e-25
5.33973e-25
-4.74363e-25
6.80132e-25
-4.61168e-25
8.21512e-25
-4.45769e-25
9.57061e-25
-4.28271e-25
1.08572e-24
-4.08806e-25
1.20642e-24
-3.87519e-25
1.31807e-24
-3.64581e-25
1.41957e-24
-3.40177e-25
1.50979e-24
-3.14524e-25
1.58757e-24
-2.87845e-25
1.65167e-24
-2.60322e-25
1.70079e-24
-2.32276e-25
1.73358e-24
-2.04187e-25
1.74864e-24
-1.76334e-25
1.74448e-24
-1.4881e-25
1.7192e-24
-1.22271e-25
1.67115e-24
-9.71874e-26
1.59826e-24
-7.39667e-26
1.49828e-24
-5.30447e-26
1.36878e-24
-3.49413e-26
1.20715e-24
-2.01882e-26
1.01048e-24
-9.22221e-27
7.75677e-25
-2.38337e-27
4.99551e-25
1.85708e-25
-3.93763e-27
-1.81763e-25
-1.529e-26
-4.88149e-25
-3.36095e-26
-7.57341e-25
-5.82094e-26
-9.85881e-25
-8.83224e-26
-1.17707e-24
-1.23141e-25
-1.334e-24
-1.61848e-25
-1.45959e-24
-2.0364e-25
-1.55649e-24
-2.4774e-25
-1.62707e-24
-2.93405e-25
-1.67353e-24
-3.39999e-25
-1.69788e-24
-3.86839e-25
-1.70177e-24
-4.33422e-25
-1.68696e-24
-4.79219e-25
-1.65495e-24
-5.23742e-25
-1.60708e-24
-5.6656e-25
-1.54468e-24
-6.07289e-25
-1.46899e-24
-6.45589e-25
-1.38119e-24
-6.81145e-25
-1.28243e-24
-7.13682e-25
-1.17379e-24
-7.4295e-25
-1.05636e-24
-7.68737e-25
-9.31181e-25
-7.90857e-25
-7.99301e-25
-8.09161e-25
-6.61737e-25
-8.23524e-25
-5.1952e-25
-8.33862e-25
-3.73665e-25
-8.40109e-25
-2.25207e-25
-8.42236e-25
-7.51749e-26
-8.40227e-25
7.53767e-26
-8.34098e-25
2.25408e-25
-8.23875e-25
3.73863e-25
-8.09624e-25
5.19713e-25
-7.91425e-25
6.61923e-25
-7.69406e-25
7.99478e-25
-7.43709e-25
9.31349e-25
-7.14526e-25
1.05651e-24
-6.82062e-25
1.17393e-24
-6.46569e-25
1.28255e-24
-6.08318e-25
1.3813e-24
-5.67627e-25
1.46907e-24
-5.24832e-25
1.54474e-24
-4.80317e-25
1.60712e-24
-4.34511e-25
1.65495e-24
-3.87905e-25
1.68693e-24
-3.41023e-25
1.70171e-24
-2.94369e-25
1.69778e-24
-2.48631e-25
1.67341e-24
-2.04453e-25
1.62692e-24
-1.62551e-25
1.5563e-24
-1.23709e-25
1.45938e-24
-8.87889e-26
1.3338e-24
-5.85809e-26
1.17688e-24
-3.38455e-26
9.85683e-25
-1.53894e-26
7.57196e-25
-3.97037e-27
4.88059e-25
1.81734e-25
-5.56985e-27
-1.76162e-25
-2.16049e-26
-4.72032e-25
-4.74447e-26
-7.31418e-25
-8.21003e-26
-9.51144e-25
-1.24471e-25
-1.13462e-24
-1.73402e-25
-1.28499e-24
-2.27733e-25
-1.40519e-24
-2.8633e-25
-1.49782e-24
-3.48108e-25
-1.56523e-24
-4.12056e-25
-1.60952e-24
-4.77244e-25
-1.63263e-24
-5.42776e-25
-1.63618e-24
-6.07905e-25
-1.62177e-24
-6.71906e-25
-1.5909e-24
-7.3412e-25
-1.54483e-24
-7.93944e-25
-1.48481e-24
-8.50848e-25
-1.41205e-24
-9.04348e-25
-1.32766e-24
-9.54012e-25
-1.23273e-24
-9.99452e-25
-1.12832e-24
-1.04033e-24
-1.01546e-24
-1.07633e-24
-8.95154e-25
-1.10721e-24
-7.684e-25
-1.13276e-24
-6.36178e-25
-1.1528e-24
-4.9947e-25
-1.1672e-24
-3.59248e-25
-1.1759e-24
-2.16504e-25
-1.17884e-24
-7.22315e-26
-1.17601e-24
7.25444e-26
-1.16742e-24
2.16814e-25
-1.15312e-24
3.59551e-25
-1.13319e-24
4.99766e-25
-1.10774e-24
6.36461e-25
-1.07695e-24
7.68671e-25
-1.04103e-24
8.95406e-25
-1.00024e-24
1.01569e-24
-9.54863e-25
1.12853e-24
-9.05258e-25
1.23291e-24
-8.51805e-25
1.32781e-24
-7.94938e-25
1.41217e-24
-7.35135e-25
1.48489e-24
-6.72932e-25
1.54487e-24
-6.08925e-25
1.59089e-24
-5.43776e-25
1.62172e-24
-4.78207e-25
1.63608e-24
-4.12974e-25
1.63249e-24
-3.48957e-25
1.60933e-24
-2.87087e-25
1.56499e-24
-2.28401e-25
1.49755e-24
-1.73996e-25
1.4049e-24
-1.24932e-25
1.28467e-24
-8.24109e-26
1.13429e-24
-4.76686e-26
9.50874e-25
-2.1771e-26
7.31191e-25
-5.6293e-27
4.71878e-25
1.76101e-25
-7.23693e-27
-1.68901e-25
-2.80579e-26
-4.51109e-25
-6.15605e-26
-6.97816e-25
-1.06427e-25
-9.06181e-25
-1.61192e-25
-1.07977e-24
-2.24337e-25
-1.22176e-24
-2.94352e-25
-1.33508e-24
-3.69769e-25
-1.42232e-24
-4.49198e-25
-1.48572e-24
-5.31344e-25
-1.5273e-24
-6.15032e-25
-1.54887e-24
-6.99139e-25
-1.55201e-24
-7.82664e-25
-1.53819e-24
-8.64712e-25
-1.50879e-24
-9.44452e-25
-1.46503e-24
-1.02112e-24
-1.4081e-24
-1.09404e-24
-1.33908e-24
-1.16259e-24
-1.25907e-24
-1.22623e-24
-1.16906e-24
-1.28445e-24
-1.07007e-24
-1.33682e-24
-9.63061e-25
-1.38294e-24
-8.49005e-25
-1.42251e-24
-7.28815e-25
-1.45522e-24
-6.0345e-25
-1.48087e-24
-4.73798e-25
-1.4993e-24
-3.40809e-25
-1.51043e-24
-2.05377e-25
-1.51416e-24
-6.84934e-26
-1.51052e-24
6.89011e-26
-1.4995e-24
2.05781e-25
-1.48116e-24
3.41206e-25
-1.45559e-24
4.74182e-25
-1.42297e-24
6.0382e-25
-1.38349e-24
7.29164e-25
-1.33744e-24
8.49333e-25
-1.28514e-24
9.63359e-25
-1.22698e-24
1.07034e-24
-1.1634e-24
1.16929e-24
-1.09489e-24
1.25926e-24
-1.022e-24
1.33923e-24
-9.4536e-25
1.4082e-24
-8.65627e-25
1.46508e-24
-7.83579e-25
1.50878e-24
-7.00036e-25
1.53812e-24
-6.15905e-25
1.55188e-24
-5.32168e-25
1.54868e-24
-4.49968e-25
1.52705e-24
-3.70483e-25
1.48542e-24
-2.94985e-25
1.42197e-24
-2.24843e-25
1.33468e-24
-1.61618e-25
1.22135e-24
-1.068e-25
1.07938e-24
-6.18024e-26
9.05782e-25
-2.81579e-26
6.97488e-25
-7.27083e-27
4.50897e-25
1.68825e-25
-8.96378e-27
-1.59897e-25
-3.47048e-26
-4.25254e-25
-7.60616e-26
-6.56345e-25
-1.31329e-25
-8.50802e-25
-1.9866e-25
-1.01233e-24
-2.76147e-25
-1.14417e-24
-3.6191e-25
-1.24922e-24
-4.54151e-25
-1.32998e-24
-5.51178e-25
-1.3886e-24
-6.51425e-25
-1.42697e-24
-7.53457e-25
-1.44676e-24
-8.55948e-25
-1.44944e-24
-9.57683e-25
-1.43638e-24
-1.05758e-24
-1.40883e-24
-1.15464e-24
-1.36791e-24
-1.24795e-24
-1.31473e-24
-1.33669e-24
-1.25029e-24
-1.42011e-24
-1.1756e-24
-1.49754e-24
-1.09158e-24
-1.56839e-24
-9.99186e-25
-1.63211e-24
-8.99307e-25
-1.68824e-24
-7.92841e-25
-1.73638e-24
-6.80659e-25
-1.77618e-24
-5.63628e-25
-1.80737e-24
-4.42591e-25
-1.82978e-24
-3.18393e-25
-1.84328e-24
-1.91879e-25
-1.84781e-24
-6.39579e-26
-1.84336e-24
6.44417e-26
-1.82994e-24
1.92357e-25
-1.80761e-24
3.18863e-25
-1.77649e-24
4.43045e-25
-1.73676e-24
5.64066e-25
-1.6887e-24
6.81071e-25
-1.63262e-24
7.93228e-25
-1.56896e-24
8.99658e-25
-1.49816e-24
9.99503e-25
-1.42078e-24
1.09185e-24
-1.33739e-24
1.17582e-24
-1.24869e-24
1.25046e-24
-1.1554e-24
1.31485e-24
-1.05835e-24
1.36797e-24
-9.58453e-25
1.40882e-24
-8.56708e-25
1.4363e-24
-7.54195e-25
1.44929e-24
-6.52136e-25
1.44653e-24
-5.51851e-25
1.42668e-24
-4.54754e-25
1.38823e-24
-3.62451e-25
1.32957e-24
-2.76654e-25
1.24878e-24
-1.99077e-25
1.14368e-24
-1.31597e-25
1.0118e-24
-7.6269e-26
8.50358e-25
-3.48886e-26
6.55977e-25
-9.04691e-27
4.24992e-25
1.59773e-25
-1.07652e-26
-1.49097e-25
-4.16064e-26
-3.94282e-25
-9.10559e-26
-6.06768e-25
-1.56976e-25
-7.84757e-25
-2.37077e-25
-9.32105e-25
-3.29038e-25
-1.05209e-24
-4.30603e-25
-1.14755e-24
-5.39648e-25
-1.22083e-24
-6.5418e-25
-1.27397e-24
-7.72379e-25
-1.30867e-24
-8.92568e-25
-1.32648e-24
-1.01322e-24
-1.32871e-24
-1.13292e-24
-1.3166e-24
-1.25042e-24
-1.29125e-24
-1.36455e-24
-1.25372e-24
-1.47426e-24
-1.20496e-24
-1.57857e-24
-1.14592e-24
-1.67665e-24
-1.07747e-24
-1.76767e-24
-1.00051e-24
-1.85097e-24
-9.15846e-25
-1.92588e-24
-8.24358e-25
-1.9919e-24
-7.26798e-25
-2.04848e-24
-6.24045e-25
-2.09529e-24
-5.16806e-25
-2.13193e-24
-4.05931e-25
-2.15825e-24
-2.92066e-25
-2.17407e-24
-1.76057e-25
-2.17939e-24
-5.86423e-26
-2.17413e-24
5.91781e-26
-2.15837e-24
1.76588e-25
-2.13211e-24
2.92583e-25
-2.09552e-24
4.06436e-25
-2.04876e-24
5.17286e-25
-1.99223e-24
6.24506e-25
-1.92626e-24
7.2722e-25
-1.8514e-24
8.24752e-25
-1.76813e-24
9.16187e-25
-1.67715e-24
1.00082e-24
-1.57909e-24
1.07771e-24
-1.47481e-24
1.14612e-24
-1.36511e-24
1.20507e-24
-1.25101e-24
1.25379e-24
-1.1335e-24
1.29123e-24
-1.0138e-24
1.31652e-24
-8.93135e-25
1.32854e-24
-7.72933e-25
1.32624e-24
-6.54694e-25
1.30834e-24
-5.40152e-25
1.27359e-24
-4.31065e-25
1.22037e-24
-3.29413e-25
1.14702e-24
-2.37396e-25
1.05155e-24
-1.57295e-25
9.31585e-25
-9.12879e-26
7.84233e-25
-4.16995e-26
6.06301e-25
-1.07823e-26
3.93966e-25
1.48985e-25
-1.26517e-26
-1.36398e-25
-4.88467e-26
-3.57946e-25
-1.06695e-25
-5.48779e-25
-1.83565e-25
-7.0775e-25
-2.76659e-25
-8.38878e-25
-3.83225e-25
-9.45396e-25
-5.00628e-25
-1.03002e-24
-6.26406e-25
-1.09494e-24
-7.58308e-25
-1.14195e-24
-8.94254e-25
-1.17262e-24
-1.03236e-24
-1.18827e-24
-1.1709e-24
-1.19008e-24
-1.30829e-24
-1.17912e-24
-1.4431e-24
-1.15636e-24
-1.57402e-24
-1.12272e-24
-1.69983e-24
-1.07907e-24
-1.81948e-24