/*--------------------------------*- C++ -*----------------------------------*\
| =========                 |                                                 |
| \\      /  F ield         | OpenFOAM: The Open Source CFD Toolbox           |
|  \\    /   O peration     | Version:  5.0                                   |
|   \\  /    A nd           | Web:      www.OpenFOAM.org                      |
|    \\/     M anipulation  |                                                 |
\*---------------------------------------------------------------------------*/
FoamFile
{
    version     2.0;
    format      ascii;
    class       volScalarField;
    location    "518";
    object      p;
}
// * * * * * * * * * * * * * * * * * * * * * * * * * * * * * * * * * * * * * //

dimensions      [0 2 -2 0 0 0 0];

internalField   nonuniform List<scalar> 
1568
(
5.16308e-20
9.02004e-19
1.60461e-18
2.04528e-18
2.42045e-18
2.74794e-18
3.02844e-18
3.27991e-18
3.51085e-18
3.72615e-18
3.93085e-18
4.12943e-18
4.32484e-18
4.51893e-18
4.71381e-18
4.91098e-18
5.11123e-18
5.31527e-18
5.52351e-18
5.73606e-18
5.95285e-18
6.1742e-18
6.39083e-18
6.5521e-18
6.67608e-18
6.83816e-18
7.10129e-18
7.48119e-18
7.91257e-18
8.29348e-18
8.55781e-18
8.72105e-18
8.84497e-18
9.00515e-18
9.22136e-18
9.4427e-18
9.65927e-18
9.87182e-18
1.00799e-17
1.02838e-17
1.04839e-17
1.0681e-17
1.08756e-17
1.10697e-17
1.12648e-17
1.14632e-17
1.1668e-17
1.18832e-17
1.21134e-17
1.23649e-17
1.26468e-17
1.29714e-17
1.33458e-17
1.3791e-17
1.44909e-17
1.52961e-17
4.96284e-19
1.02644e-18
1.8531e-18
2.22375e-18
2.56544e-18
2.93162e-18
3.21046e-18
3.45973e-18
3.69867e-18
3.91761e-18
4.12065e-18
4.31725e-18
4.51134e-18
4.70098e-18
4.89011e-18
5.0804e-18
5.2723e-18
5.4667e-18
5.66449e-18
5.86606e-18
6.07178e-18
6.28195e-18
6.50256e-18
6.75104e-18
6.99834e-18
7.22311e-18
7.45485e-18
7.63689e-18
7.76014e-18
7.94273e-18
8.17411e-18
8.39782e-18
8.6434e-18
8.89294e-18
9.11373e-18
9.32458e-18
9.52906e-18
9.73142e-18
9.92865e-18
1.01228e-17
1.03149e-17
1.05058e-17
1.06943e-17
1.08841e-17
1.10762e-17
1.12736e-17
1.14792e-17
1.16963e-17
1.19286e-17
1.21856e-17
1.24737e-17
1.28051e-17
1.31708e-17
1.35702e-17
1.43669e-17
1.49001e-17
9.95061e-19
1.48079e-18
2.09084e-18
2.53649e-18
2.90421e-18
3.20934e-18
3.49223e-18
3.76264e-18
3.99086e-18
4.19795e-18
4.40965e-18
4.60444e-18
4.78521e-18
4.96807e-18
5.14913e-18
5.32545e-18
5.50422e-18
5.68424e-18
5.866e-18
6.04854e-18
6.23444e-18
6.42146e-18
6.61039e-18
6.80156e-18
6.97409e-18
7.14302e-18
7.3493e-18
7.58235e-18
7.81426e-18
8.04577e-18
8.25219e-18
8.42303e-18
8.59765e-18
8.7883e-18
8.97555e-18
9.16147e-18
9.3493e-18
9.53014e-18
9.71211e-18
9.89254e-18
1.00694e-17
1.02447e-17
1.04262e-17
1.06069e-17
1.07933e-17
1.09861e-17
1.1188e-17
1.14031e-17
1.16387e-17
1.18949e-17
1.21742e-17
1.2498e-17
1.28801e-17
1.32338e-17
1.39436e-17
1.44076e-17
1.47704e-18
1.88239e-18
2.53745e-18
2.8335e-18
3.17475e-18
3.48785e-18
3.75785e-18
4.00671e-18
4.23244e-18
4.44185e-18
4.63506e-18
4.81754e-18
4.99762e-18
5.17264e-18
5.33997e-18
5.50916e-18
5.67738e-18
5.84433e-18
6.01201e-18
6.18346e-18
6.35489e-18
6.52774e-18
6.70068e-18
6.87468e-18
7.04304e-18
7.21665e-18
7.40145e-18
7.59854e-18
7.79791e-18
7.99588e-18
8.18158e-18
8.35277e-18
8.51968e-18
8.69286e-18
8.86781e-18
9.04011e-18
9.21168e-18
9.38253e-18
9.55011e-18
9.71755e-18
9.88636e-18
1.00562e-17
1.02249e-17
1.03973e-17
1.05754e-17
1.07601e-17
1.0954e-17
1.11645e-17
1.13885e-17
1.16282e-17
1.19109e-17
1.22292e-17
1.25477e-17
1.28739e-17
1.35237e-17
1.39208e-17
1.99061e-18
2.32693e-18
2.90449e-18
3.18677e-18
3.50376e-18
3.79791e-18
4.05223e-18
4.28161e-18
4.49258e-18
4.69326e-18
4.87712e-18
5.0522e-18
5.22074e-18
5.38151e-18
5.53983e-18
5.69717e-18
5.85182e-18
6.00708e-18
6.16263e-18
6.31847e-18
6.47522e-18
6.63369e-18
6.79345e-18
6.95506e-18
7.11627e-18
7.28028e-18
7.44688e-18
7.61463e-18
7.7816e-18
7.94945e-18
8.11622e-18
8.28102e-18
8.44288e-18
8.6041e-18
8.76405e-18
8.92228e-18
9.07792e-18
9.23438e-18
9.38957e-18
9.54378e-18
9.69798e-18
9.85371e-18
1.00115e-17
1.01744e-17
1.03412e-17
1.05164e-17
1.07021e-17
1.08968e-17
1.11088e-17
1.13483e-17
1.15976e-17
1.18701e-17
1.22036e-17
1.25189e-17
1.30461e-17
1.34028e-17
2.537e-18
2.84999e-18
3.32286e-18
3.60672e-18
3.88127e-18
4.13908e-18
4.37834e-18
4.59289e-18
4.78715e-18
4.97159e-18
5.14379e-18
5.30583e-18
5.46024e-18
5.6103e-18
5.75729e-18
5.8996e-18
6.04062e-18
6.18168e-18
6.32262e-18
6.46265e-18
6.60414e-18
6.74664e-18
6.88942e-18
7.0328e-18
7.17728e-18
7.32225e-18
7.47114e-18
7.62277e-18
7.77459e-18
7.92567e-18
8.07403e-18
8.21926e-18
8.36386e-18
8.50731e-18
8.64912e-18
8.79136e-18
8.93303e-18
9.07323e-18
9.21382e-18
9.35484e-18
9.49601e-18
9.63882e-18
9.78514e-18
9.93414e-18
1.00891e-17
1.02511e-17
1.04207e-17
1.0606e-17
1.08055e-17
1.10103e-17
1.12487e-17
1.15269e-17
1.17907e-17
1.20425e-17
1.25547e-17
1.2859e-17
3.10086e-18
3.36999e-18
3.78776e-18
4.02714e-18
4.2745e-18
4.51187e-18
4.72018e-18
4.91253e-18
5.09467e-18
5.26115e-18
5.41587e-18
5.56303e-18
5.70411e-18
5.83995e-18
5.97112e-18
6.10016e-18
6.22803e-18
6.35386e-18
6.47911e-18
6.60522e-18
6.73131e-18
6.85709e-18
6.98383e-18
7.11138e-18
7.23951e-18
7.36863e-18
7.49972e-18
7.63198e-18
7.76484e-18
7.89775e-18
8.0287e-18
8.15721e-18
8.28504e-18
8.41252e-18
8.53916e-18
8.66519e-18
8.79134e-18
8.91649e-18
9.04159e-18
9.16749e-18
9.29477e-18
9.42364e-18
9.55504e-18
9.69003e-18
9.83057e-18
9.97831e-18
1.01341e-17
1.02991e-17
1.04774e-17
1.06753e-17
1.0886e-17
1.11055e-17
1.13669e-17
1.16201e-17
1.20231e-17
1.2291e-17
3.68286e-18
3.90811e-18
4.27149e-18
4.47541e-18
4.69247e-18
4.89863e-18
5.08093e-18
5.2523e-18
5.41295e-18
5.55846e-18
5.69716e-18
5.8294e-18
5.95435e-18
6.07399e-18
6.19036e-18
6.30452e-18
6.4165e-18
6.52712e-18
6.63728e-18
6.74726e-18
6.85701e-18
6.96721e-18
7.07802e-18
7.18931e-18
7.30082e-18
7.41356e-18
7.52708e-18
7.64127e-18
7.75569e-18
7.86961e-18
7.98342e-18
8.09646e-18
8.20779e-18
8.31882e-18
8.42988e-18
8.53975e-18
8.64903e-18
8.75896e-18
8.86892e-18
8.97935e-18
9.09091e-18
9.20421e-18
9.32028e-18
9.44046e-18
9.56504e-18
9.69555e-18
9.83329e-18
9.98179e-18
1.0141e-17
1.03073e-17
1.04935e-17
1.07066e-17
1.09159e-17
1.11057e-17
1.14831e-17
1.17084e-17
4.27945e-18
4.46929e-18
4.7752e-18
4.94722e-18
5.12893e-18
5.30189e-18
5.46211e-18
5.60957e-18
5.74454e-18
5.87191e-18
5.9925e-18
6.10474e-18
6.21217e-18
6.31622e-18
6.4167e-18
6.51431e-18
6.60995e-18
6.70498e-18
6.79922e-18
6.89245e-18
6.98591e-18
7.0801e-18
7.17378e-18
7.26791e-18
7.36279e-18
7.4581e-18
7.5539e-18
7.65039e-18
7.747e-18
7.84315e-18
7.93896e-18
8.03413e-18
8.12887e-18
8.22294e-18
8.31654e-18
8.41007e-18
8.50343e-18
8.59684e-18
8.69072e-18
8.7853e-18
8.88095e-18
8.97853e-18
9.07879e-18
9.18208e-18
9.28888e-18
9.402e-18
9.52181e-18
9.64787e-18
9.78336e-18
9.93195e-18
1.00911e-17
1.02562e-17
1.0446e-17
1.06279e-17
1.0919e-17
1.11099e-17
4.88781e-18
5.04197e-18
5.2875e-18
5.42834e-18
5.57924e-18
5.72221e-18
5.85411e-18
5.97444e-18
6.08613e-18
6.19323e-18
6.2939e-18
6.38704e-18
6.47572e-18
6.56206e-18
6.64498e-18
6.72607e-18
6.80545e-18
6.8836e-18
6.96095e-18
7.03849e-18
7.11528e-18
7.19194e-18
7.26907e-18
7.34662e-18
7.42422e-18
7.50217e-18
7.58054e-18
7.65918e-18
7.73782e-18
7.81673e-18
7.89502e-18
7.97279e-18
8.05037e-18
8.12768e-18
8.2045e-18
8.28117e-18
8.35812e-18
8.43497e-18
8.51209e-18
8.59001e-18
8.66911e-18
8.7498e-18
8.83252e-18
8.91819e-18
9.00675e-18
9.10033e-18
9.19931e-18
9.3056e-18
9.41949e-18
9.53709e-18
9.6684e-18
9.81432e-18
9.96346e-18
1.00947e-17
1.0349e-17
1.05016e-17
5.50462e-18
5.62432e-18
5.81353e-18
5.92456e-18
6.0416e-18
6.1525e-18
6.25444e-18
6.34894e-18
6.43925e-18
6.52241e-18
6.59943e-18
6.67314e-18
6.74476e-18
6.81235e-18
6.87708e-18
6.94073e-18
7.0031e-18
7.06421e-18
7.12467e-18
7.18479e-18
7.24503e-18
7.30481e-18
7.36497e-18
7.42497e-18
7.48522e-18
7.54582e-18
7.60705e-18
7.66821e-18
7.72937e-18
7.79036e-18
7.85096e-18
7.91158e-18
7.97194e-18
8.03196e-18
8.09191e-18
8.15166e-18
8.21138e-18
8.27132e-18
8.33163e-18
8.39258e-18
8.45452e-18
8.51756e-18
8.58199e-18
8.64974e-18
8.7206e-18
8.79314e-18
8.87125e-18
8.95391e-18
9.0417e-18
9.13677e-18
9.24186e-18
9.3477e-18
9.4641e-18
9.57969e-18
9.76426e-18
9.88342e-18
6.12867e-18
6.21375e-18
6.34953e-18
6.42793e-18
6.51147e-18
6.59072e-18
6.66448e-18
6.73285e-18
6.79708e-18
6.853e-18
6.91161e-18
6.96233e-18
7.01251e-18
7.06563e-18
7.11259e-18
7.1579e-18
7.20251e-18
7.24642e-18
7.29002e-18
7.33273e-18
7.37569e-18
7.41852e-18
7.46138e-18
7.50433e-18
7.54773e-18
7.59078e-18
7.63372e-18
7.67655e-18
7.71983e-18
7.76334e-18
7.80688e-18
7.84998e-18
7.89274e-18
7.93537e-18
7.97797e-18
8.02087e-18
8.06332e-18
8.10604e-18
8.14924e-18
8.19278e-18
8.23714e-18
8.28249e-18
8.32887e-18
8.38159e-18
8.4314e-18
8.48179e-18
8.53983e-18
8.59502e-18
8.6605e-18
8.72763e-18
8.79779e-18
8.87854e-18
8.96684e-18
9.03792e-18
9.17488e-18
9.25937e-18
6.75699e-18
6.80856e-18
6.89037e-18
6.93687e-18
6.98751e-18
7.03513e-18
7.07996e-18
7.12165e-18
7.15843e-18
7.18414e-18
7.2493e-18
7.28423e-18
7.28213e-18
7.32313e-18
7.35022e-18
7.37656e-18
7.4037e-18
7.42986e-18
7.45569e-18
7.48142e-18
7.50675e-18
7.53242e-18
7.55773e-18
7.583e-18
7.60832e-18
7.63397e-18
7.65986e-18
7.68622e-18
7.71211e-18
7.73734e-18
7.7627e-18
7.78822e-18
7.81367e-18
7.83921e-18
7.86444e-18
7.88943e-18
7.91491e-18
7.94044e-18
7.9659e-18
7.99173e-18
8.01845e-18
8.04458e-18
8.07138e-18
8.11177e-18
8.10937e-18
8.144e-18
8.20821e-18
8.23448e-18
8.26992e-18
8.30928e-18
8.35936e-18
8.40442e-18
8.44827e-18
8.49854e-18
8.5802e-18
8.63036e-18
7.38869e-18
7.4064e-18
7.43398e-18
7.45018e-18
7.46766e-18
7.48325e-18
7.4986e-18
7.51378e-18
7.5309e-18
7.53817e-18
7.55817e-18
7.56302e-18
7.56376e-18
7.59105e-18
7.59127e-18
7.59675e-18
7.60568e-18
7.61388e-18
7.62181e-18
7.63016e-18
7.63837e-18
7.64636e-18
7.65439e-18
7.66269e-18
7.67064e-18
7.67881e-18
7.68664e-18
7.6944e-18
7.70241e-18
7.71061e-18
7.71863e-18
7.72668e-18
7.73452e-18
7.74233e-18
7.75046e-18
7.75807e-18
7.76619e-18
7.77403e-18
7.78177e-18
7.78997e-18
7.79839e-18
7.80315e-18
7.80347e-18
7.83024e-18
7.83044e-18
7.83523e-18
7.85428e-18
7.8606e-18
7.87873e-18
7.89481e-18
7.90594e-18
7.91741e-18
7.9461e-18
7.95719e-18
7.98096e-18
7.99866e-18
8.02109e-18
8.00567e-18
7.97999e-18
7.96431e-18
7.94861e-18
7.93185e-18
7.91799e-18
7.90234e-18
7.88551e-18
7.87842e-18
7.85772e-18
7.85251e-18
7.85141e-18
7.8236e-18
7.82255e-18
7.81656e-18
7.80683e-18
7.79752e-18
7.78848e-18
7.7793e-18
7.76991e-18
7.76038e-18
7.75114e-18
7.74189e-18
7.73242e-18
7.7228e-18
7.71325e-18
7.70329e-18
7.69346e-18
7.68412e-18
7.67459e-18
7.66486e-18
7.65529e-18
7.64556e-18
7.63601e-18
7.62673e-18
7.61703e-18
7.60739e-18
7.59809e-18
7.58848e-18
7.5786e-18
7.57212e-18
7.57077e-18
7.54271e-18
7.54097e-18
7.53514e-18
7.51473e-18
7.5079e-18
7.48878e-18
7.47008e-18
7.46221e-18
7.44579e-18
7.42146e-18
7.40302e-18
7.38403e-18
7.36614e-18
8.65313e-18
8.60429e-18
8.52431e-18
8.4771e-18
8.42896e-18
8.38007e-18
8.33737e-18
8.29508e-18
8.25757e-18
8.2322e-18
8.16671e-18
8.13168e-18
8.13356e-18
8.09175e-18
8.06413e-18
8.03694e-18
8.00888e-18
7.98198e-18
7.95516e-18
7.92813e-18
7.90134e-18
7.87504e-18
7.84795e-18
7.82069e-18
7.79356e-18
7.76645e-18
7.73949e-18
7.71283e-18
7.6855e-18
7.6579e-18
7.63015e-18
7.60302e-18
7.57599e-18
7.5492e-18
7.52181e-18
7.49506e-18
7.46786e-18
7.4411e-18
7.41389e-18
7.38641e-18
7.35806e-18
7.33084e-18
7.30233e-18
7.26026e-18
7.26186e-18
7.22692e-18
7.16029e-18
7.1333e-18
7.09755e-18
7.05741e-18
7.00824e-18
6.95421e-18
6.92074e-18
6.86908e-18
6.78331e-18
6.73404e-18
9.28219e-18
9.19926e-18
9.06559e-18
8.98762e-18
8.90563e-18
8.82434e-18
8.75298e-18
8.68405e-18
8.61975e-18
8.56398e-18
8.5045e-18
8.45361e-18
8.4032e-18
8.3493e-18
8.30211e-18
8.25551e-18
8.21018e-18
8.16517e-18
8.12097e-18
8.07662e-18
8.03286e-18
7.98843e-18
7.94458e-18
7.90036e-18
7.85639e-18
7.81136e-18
7.76635e-18
7.72057e-18
7.67582e-18
7.63068e-18
7.58636e-18
7.54142e-18
7.49688e-18
7.45209e-18
7.40816e-18
7.36361e-18
7.31966e-18
7.27494e-18
7.23044e-18
7.18523e-18
7.13953e-18
7.0926e-18
7.04518e-18
6.9909e-18
6.93992e-18
6.88823e-18
6.82894e-18
6.77401e-18
6.70667e-18
6.63465e-18
6.57063e-18
6.49047e-18
6.39532e-18
6.31634e-18
6.19092e-18
6.10519e-18
9.90743e-18
9.7906e-18
9.6013e-18
9.49125e-18
9.37686e-18
9.2635e-18
9.16279e-18
9.06747e-18
8.97792e-18
8.895e-18
8.81621e-18
8.74308e-18
8.67125e-18
8.60261e-18
8.53705e-18
8.47297e-18
8.40978e-18
8.34757e-18
8.28588e-18
8.22473e-18
8.1635e-18
8.10204e-18
8.04071e-18
7.97891e-18
7.91689e-18
7.85472e-18
7.79276e-18
7.73011e-18
7.66758e-18
7.60463e-18
7.54228e-18
7.47973e-18
7.41797e-18
7.35599e-18
7.29479e-18
7.23287e-18
7.17172e-18
7.10983e-18
7.04824e-18
6.98552e-18
6.92233e-18
6.85728e-18
6.79193e-18
6.72243e-18
6.65064e-18
6.57763e-18
6.49756e-18
6.41214e-18
6.327e-18
6.2326e-18
6.1226e-18
6.00611e-18
5.90968e-18
5.79423e-18
5.5969e-18
5.48011e-18
1.05258e-17
1.03733e-17
1.01298e-17
9.98705e-18
9.83968e-18
9.69509e-18
9.56553e-18
9.44378e-18
9.33046e-18
9.22524e-18
9.12394e-18
9.02999e-18
8.94047e-18
8.8543e-18
8.76983e-18
8.68885e-18
8.60765e-18
8.5295e-18
8.4498e-18
8.37268e-18
8.29309e-18
8.21636e-18
8.13647e-18
8.05912e-18
7.97838e-18
7.9004e-18
7.81845e-18
7.73984e-18
7.65743e-18
7.57895e-18
7.49679e-18
7.419e-18
7.33792e-18
7.26088e-18
7.18012e-18
7.10371e-18
7.02344e-18
6.94664e-18
6.86592e-18
6.78816e-18
6.70585e-18
6.62536e-18
6.53961e-18
6.45402e-18
6.36321e-18
6.26858e-18
6.16724e-18
6.06553e-18
5.94551e-18
5.81908e-18
5.70421e-18
5.55928e-18
5.39231e-18
5.24973e-18
5.01811e-18
4.86243e-18
1.1136e-17
1.09479e-17
1.06458e-17
1.04713e-17
1.02906e-17
1.01141e-17
9.95805e-18
9.81035e-18
9.67362e-18
9.54626e-18
9.42625e-18
9.31235e-18
9.20501e-18
9.09998e-18
8.99943e-18
8.9e-18
8.80392e-18
8.70734e-18
8.61312e-18
8.51714e-18
8.42337e-18
8.32742e-18
8.23285e-18
8.13617e-18
8.04085e-18
7.94297e-18
7.84623e-18
7.74729e-18
7.64989e-18
7.55086e-18
7.45405e-18
7.35623e-18
7.26041e-18
7.16356e-18
7.06875e-18
6.97303e-18
6.87842e-18
6.78293e-18
6.68808e-18
6.5916e-18
6.49473e-18
6.39578e-18
6.29477e-18
6.1894e-18
6.08082e-18
5.96857e-18
5.84758e-18
5.71539e-18
5.58228e-18
5.44484e-18
5.27067e-18
5.08511e-18
4.93378e-18
4.75803e-18
4.4386e-18
4.2522e-18
1.17348e-17
1.15093e-17
1.11478e-17
1.09426e-17
1.07296e-17
1.05198e-17
1.03375e-17
1.01659e-17
1.00064e-17
9.85841e-18
9.72021e-18
9.58763e-18
9.46312e-18
9.34074e-18
9.22551e-18
9.10898e-18
8.99823e-18
8.88352e-18
8.77538e-18
8.66112e-18
8.5535e-18
8.43778e-18
8.33001e-18
8.21288e-18
8.10422e-18
7.98507e-18
7.87522e-18
7.75376e-18
7.6434e-18
7.52163e-18
7.41256e-18
7.29233e-18
7.18513e-18
7.06644e-18
6.96056e-18
6.84187e-18
6.73677e-18
6.61952e-18
6.51375e-18
6.39559e-18
6.28809e-18
6.1672e-18
6.05459e-18
5.92893e-18
5.80845e-18
5.67139e-18
5.53401e-18
5.38748e-18
5.23089e-18
5.04126e-18
4.87424e-18
4.68263e-18
4.43722e-18
4.22211e-18
3.88631e-18
3.65511e-18
1.23199e-17
1.2054e-17
1.16353e-17
1.13908e-17
1.11486e-17
1.09116e-17
1.07004e-17
1.05076e-17
1.03272e-17
1.01616e-17
1.00034e-17
9.85713e-18
9.71439e-18
9.58013e-18
9.44481e-18
9.31749e-18
9.18645e-18
9.0628e-18
8.93184e-18
8.80923e-18
8.67724e-18
8.55455e-18
8.4211e-18
8.29698e-18
8.16189e-18
8.03643e-18
7.89779e-18
7.76915e-18
7.6282e-18
7.49993e-18
7.36065e-18
7.23565e-18
7.09951e-18
6.97604e-18
6.84116e-18
6.71984e-18
6.58686e-18
6.46438e-18
6.33205e-18
6.20993e-18
6.0767e-18
5.95101e-18
5.81401e-18
5.68118e-18
5.53497e-18
5.38976e-18
5.23286e-18
5.06551e-18
4.87979e-18
4.70018e-18
4.48638e-18
4.2191e-18
4.00928e-18
3.77635e-18
3.3339e-18
3.06989e-18
1.28879e-17
1.25801e-17
1.20956e-17
1.18195e-17
1.15439e-17
1.12785e-17
1.10442e-17
1.08304e-17
1.06316e-17
1.04487e-17
1.02758e-17
1.01143e-17
9.95658e-18
9.80809e-18
9.6591e-18
9.518e-18
9.37161e-18
9.23374e-18
9.08749e-18
8.95031e-18
8.80201e-18
8.66452e-18
8.5132e-18
8.37525e-18
8.22177e-18
8.0827e-18
7.92359e-18
7.77974e-18
7.61704e-18
7.47373e-18
7.31264e-18
7.17538e-18
7.01911e-18
6.88406e-18
6.72894e-18
6.59638e-18
6.44158e-18
6.31068e-18
6.15905e-18
6.02701e-18
5.87351e-18
5.73983e-18
5.58352e-18
5.44115e-18
5.2773e-18
5.12309e-18
4.94156e-18
4.76439e-18
4.56385e-18
4.34828e-18
4.10554e-18
3.86579e-18
3.57449e-18
3.2766e-18
2.81416e-18
2.50417e-18
1.34352e-17
1.30851e-17
1.253e-17
1.22291e-17
1.19164e-17
1.16241e-17
1.13731e-17
1.11377e-17
1.09252e-17
1.07265e-17
1.05435e-17
1.03647e-17
1.02002e-17
1.00332e-17
9.87867e-18
9.71574e-18
9.56605e-18
9.40253e-18
9.25466e-18
9.08779e-18
8.93977e-18
8.76856e-18
8.61949e-18
8.44418e-18
8.29397e-18
8.11481e-18
7.9604e-18
7.77552e-18
7.62167e-18
7.43571e-18
7.28426e-18
7.10345e-18
6.95702e-18
6.77794e-18
6.6329e-18
6.45487e-18
6.3131e-18
6.14067e-18
5.99676e-18
5.8255e-18
5.68295e-18
5.51106e-18
5.36384e-18
5.18914e-18
5.03143e-18
4.84532e-18
4.66774e-18
4.46356e-18
4.25651e-18
4.01699e-18
3.77147e-18
3.46943e-18
3.15575e-18
2.87814e-18
2.30779e-18
1.95756e-18
1.3953e-17
1.35508e-17
1.29157e-17
1.25893e-17
1.22509e-17
1.19361e-17
1.16669e-17
1.14191e-17
1.11935e-17
1.09853e-17
1.07895e-17
1.06033e-17
1.04254e-17
1.02504e-17
1.00802e-17
9.90976e-18
9.74261e-18
9.57152e-18
9.40341e-18
9.22951e-18
9.05875e-18
8.88144e-18
8.70917e-18
8.52961e-18
8.36245e-18
8.18339e-18
8.00111e-18
7.79724e-18
7.60024e-18
7.3961e-18
7.21358e-18
7.03103e-18
6.86381e-18
6.68228e-18
6.51334e-18
6.33369e-18
6.16715e-18
5.98701e-18
5.8245e-18
5.65109e-18
5.48947e-18
5.31325e-18
5.1485e-18
4.96853e-18
4.79471e-18
4.60311e-18
4.41393e-18
4.20041e-18
3.97677e-18
3.72422e-18
3.46272e-18
3.14455e-18
2.80809e-18
2.4721e-18
1.84356e-18
1.44175e-18
1.44424e-17
1.3983e-17
1.32654e-17
1.2898e-17
1.25414e-17
1.22066e-17
1.19207e-17
1.16672e-17
1.14306e-17
1.1216e-17
1.10105e-17
1.08202e-17
1.06292e-17
1.04516e-17
1.0266e-17
1.00932e-17
9.90617e-18
9.7339e-18
9.54166e-18
9.36787e-18
9.16852e-18
8.99279e-18
8.78908e-18
8.61107e-18
8.42265e-18
8.26723e-18
8.0407e-18
7.82343e-18
7.57217e-18
7.35641e-18
7.12787e-18
6.97871e-18
6.78685e-18
6.61405e-18
6.40204e-18
6.23401e-18
6.02477e-18
5.86063e-18
5.65969e-18
5.49368e-18
5.29422e-18
5.13362e-18
4.93657e-18
4.76849e-18
4.56774e-18
4.38741e-18
4.17091e-18
3.96404e-18
3.72302e-18
3.47563e-18
3.18045e-18
2.84939e-18
2.49935e-18
2.126e-18
1.41434e-18
9.54111e-19
1.4935e-17
1.43977e-17
1.36067e-17
1.32015e-17
1.28367e-17
1.25026e-17
1.22162e-17
1.19597e-17
1.17256e-17
1.15078e-17
1.1302e-17
1.11036e-17
1.09106e-17
1.07194e-17
1.05296e-17
1.0338e-17
1.01452e-17
9.94905e-18
9.75029e-18
9.54667e-18
9.33996e-18
9.12762e-18
8.90546e-18
8.65386e-18
8.40488e-18
8.17846e-18
7.94544e-18
7.76152e-18
7.63596e-18
7.4517e-18
7.2185e-18
6.99068e-18
6.74075e-18
6.48956e-18
6.2678e-18
6.05535e-18
5.84867e-18
5.645e-18
5.44524e-18
5.25032e-18
5.05803e-18
4.86603e-18
4.67534e-18
4.48465e-18
4.29086e-18
4.09261e-18
3.88653e-18
3.66916e-18
3.43354e-18
3.1777e-18
2.89235e-18
2.55823e-18
2.19135e-18
1.78842e-18
9.9959e-19
4.62458e-19
1.53307e-17
1.45234e-17
1.38233e-17
1.33775e-17
1.30023e-17
1.26772e-17
1.23951e-17
1.21429e-17
1.19121e-17
1.16963e-17
1.14907e-17
1.12914e-17
1.10956e-17
1.09004e-17
1.07046e-17
1.05062e-17
1.0305e-17
1.00994e-17
9.89004e-18
9.67574e-18
9.45767e-18
9.23428e-18
9.0167e-18
8.85452e-18
8.72909e-18
8.56364e-18
8.29785e-18
7.9146e-18
7.48135e-18
7.09857e-18
6.8336e-18
6.66872e-18
6.54333e-18
6.38028e-18
6.16257e-18
5.9388e-18
5.72078e-18
5.50605e-18
5.29659e-18
5.09061e-18
4.88937e-18
4.69043e-18
4.49467e-18
4.29905e-18
4.10314e-18
3.90331e-18
3.69782e-18
3.48169e-18
3.25074e-18
2.99823e-18
2.71639e-18
2.39133e-18
2.01624e-18
1.57114e-18
8.72076e-19
6.61301e-20
)
;

boundaryField
{
    top
    {
        type            zeroGradient;
    }
    bottom
    {
        type            zeroGradient;
    }
    rotatingWall
    {
        type            zeroGradient;
    }
    wall
    {
        type            zeroGradient;
    }
    frontAndBack
    {
        type            empty;
    }
}


// ************************************************************************* //
