/*--------------------------------*- C++ -*----------------------------------*\
| =========                 |                                                 |
| \\      /  F ield         | OpenFOAM: The Open Source CFD Toolbox           |
|  \\    /   O peration     | Version:  5.0                                   |
|   \\  /    A nd           | Web:      www.OpenFOAM.org                      |
|    \\/     M anipulation  |                                                 |
\*---------------------------------------------------------------------------*/
FoamFile
{
    version     2.0;
    format      ascii;
    class       volScalarField;
    location    "0.4";
    object      shearRate;
}
// * * * * * * * * * * * * * * * * * * * * * * * * * * * * * * * * * * * * * //

dimensions      [0 0 -1 0 0 0 0];

internalField   nonuniform List<scalar> 
50
(
3.40549e-11
5.73241e-11
2.80434e-11
1.82308e-11
5.32514e-11
5.65886e-11
9.84786e-11
3.02117e-11
2.42116e-11
8.9998e-11
6.59363e-11
9.64892e-11
3.02169e-11
2.78457e-11
8.08973e-11
7.10169e-11
8.19964e-11
2.51029e-11
2.7964e-11
6.16931e-11
5.86422e-11
1.89342e-11
1.48291e-11
2.73316e-11
7.51291e-12
5.62646e-11
7.83622e-12
1.86027e-11
3.07882e-11
1.74643e-11
3.30536e-11
1.41197e-10
6.44631e-11
6.46652e-11
1.52096e-10
2.40395e-11
1.50886e-10
6.61774e-11
6.25267e-11
1.69742e-10
4.83777e-11
2.10198e-10
5.76568e-11
5.08998e-11
2.22435e-10
6.28169e-11
2.17802e-10
5.14121e-11
4.22027e-11
2.08813e-10
)
;

boundaryField
{
    top
    {
        type            zeroGradient;
    }
    bottom
    {
        type            symmetryPlane;
    }
    inlet
    {
        type            zeroGradient;
    }
    outlet
    {
        type            zeroGradient;
    }
    frontAndBack
    {
        type            empty;
    }
    procBoundary0to1
    {
        type            processor;
        value           nonuniform List<scalar> 10(2.8912e-11 3.73689e-11 4.2848e-11 4.26095e-11 3.3881e-11 3.51557e-11 7.31764e-11 7.20639e-11 5.81719e-11 4.96499e-11);
    }
}


// ************************************************************************* //
