/*--------------------------------*- C++ -*----------------------------------*\
| =========                 |                                                 |
| \\      /  F ield         | OpenFOAM: The Open Source CFD Toolbox           |
|  \\    /   O peration     | Version:  5.0                                   |
|   \\  /    A nd           | Web:      www.OpenFOAM.org                      |
|    \\/     M anipulation  |                                                 |
\*---------------------------------------------------------------------------*/
FoamFile
{
    version     2.0;
    format      ascii;
    class       volScalarField;
    location    "0.4";
    object      shearRate;
}
// * * * * * * * * * * * * * * * * * * * * * * * * * * * * * * * * * * * * * //

dimensions      [0 0 -1 0 0 0 0];

internalField   nonuniform List<scalar> 
200
(
0.000123738
0.000122356
0.000121798
0.000121628
0.000121609
0.000121597
0.0001216
0.000121597
0.000121599
0.000121598
0.000369937
0.000365679
0.000364695
0.000364221
0.000364173
0.000364135
0.000364144
0.000364135
0.000364142
0.000364137
0.000614085
0.000607085
0.000605567
0.000604798
0.000604726
0.000604662
0.00060468
0.000604664
0.000604675
0.000604668
0.000854636
0.000845067
0.000843054
0.000842016
0.000841925
0.000841836
0.000841863
0.00084184
0.000841857
0.000841846
0.00109015
0.00107825
0.00107582
0.00107455
0.00107445
0.00107434
0.00107438
0.00107434
0.00107437
0.00107435
0.00131925
0.00130531
0.00130256
0.0013011
0.001301
0.00130086
0.00130091
0.00130087
0.0013009
0.00130088
0.00154056
0.00152494
0.00152199
0.00152039
0.00152031
0.00152015
0.00152021
0.00152016
0.0015202
0.00152018
0.00175277
0.00173592
0.0017329
0.00173121
0.00173116
0.00173098
0.00173106
0.001731
0.00173104
0.00173102
0.00195462
0.00193703
0.0019341
0.00193239
0.00193238
0.00193218
0.00193228
0.0019322
0.00193226
0.00193223
0.0021449
0.00212717
0.00212448
0.0021228
0.00212286
0.00212263
0.00212275
0.00212266
0.00212273
0.00212269
0.00232248
0.00230526
0.00230297
0.00230139
0.00230153
0.00230128
0.00230143
0.00230132
0.0023014
0.00230135
0.00248628
0.00247032
0.00246861
0.00246717
0.0024674
0.00246712
0.0024673
0.00246717
0.00246727
0.0024672
0.0026353
0.00262143
0.00262046
0.00261921
0.00261955
0.00261924
0.00261946
0.0026193
0.00261942
0.00261934
0.00276862
0.00275778
0.0027577
0.00275667
0.00275715
0.00275679
0.00275705
0.00275686
0.002757
0.0027569
0.00288543
0.00287863
0.00287957
0.00287879
0.00287941
0.002879
0.00287931
0.00287908
0.00287925
0.00287913
0.00298495
0.00298335
0.00298542
0.00298487
0.00298565
0.00298516
0.00298554
0.00298527
0.00298547
0.00298532
0.00306656
0.00307138
0.00307465
0.00307431
0.00307527
0.0030747
0.00307515
0.00307482
0.00307506
0.00307488
0.00312968
0.0031423
0.00314679
0.00314662
0.00314776
0.00314708
0.00314762
0.00314722
0.00314751
0.0031473
0.00317386
0.00319582
0.00320151
0.00320141
0.00320276
0.00320193
0.00320258
0.0032021
0.00320245
0.00320219
0.00319875
0.00323179
0.00323857
0.00323841
0.00323998
0.00323898
0.00323975
0.00323918
0.00323959
0.00323928
)
;

boundaryField
{
    top
    {
        type            zeroGradient;
    }
    bottom
    {
        type            symmetryPlane;
    }
    inlet
    {
        type            zeroGradient;
    }
    outlet
    {
        type            zeroGradient;
    }
    frontAndBack
    {
        type            empty;
    }
    procBoundary0to1
    {
        type            processor;
        value           nonuniform List<scalar> 
20
(
0.000121599
0.00036414
0.000604673
0.000841854
0.00107436
0.0013009
0.0015202
0.00173104
0.00193225
0.00212272
0.00230139
0.00246725
0.0026194
0.00275698
0.00287922
0.00298543
0.00307501
0.00314745
0.00320238
0.0032395
)
;
    }
}


// ************************************************************************* //
