/*--------------------------------*- C++ -*----------------------------------*\
| =========                 |                                                 |
| \\      /  F ield         | OpenFOAM: The Open Source CFD Toolbox           |
|  \\    /   O peration     | Version:  5.0                                   |
|   \\  /    A nd           | Web:      www.OpenFOAM.org                      |
|    \\/     M anipulation  |                                                 |
\*---------------------------------------------------------------------------*/
FoamFile
{
    version     2.0;
    format      ascii;
    class       volScalarField;
    location    "0.5";
    object      nu;
}
// * * * * * * * * * * * * * * * * * * * * * * * * * * * * * * * * * * * * * //

dimensions      [0 2 -1 0 0 0 0];

internalField   nonuniform List<scalar> 
100
(
2.49435
2.17667
2.28862
2.233
2.35592
2.35594
2.23307
2.28862
2.17658
2.49417
0.367492
0.366991
0.36665
0.36675
0.367116
0.367112
0.366757
0.366649
0.366985
0.367484
0.348437
0.375502
0.366961
0.371447
0.36221
0.362201
0.371449
0.366958
0.375508
0.348448
0.337711
0.379665
0.367109
0.373923
0.35983
0.359818
0.373921
0.367105
0.379681
0.337737
0.332389
0.381732
0.367185
0.375167
0.358625
0.358612
0.375161
0.36718
0.381755
0.332423
0.332388
0.381731
0.367184
0.375168
0.358624
0.358612
0.37516
0.367179
0.381755
0.332423
0.337708
0.379662
0.367107
0.373925
0.359827
0.359819
0.373917
0.367104
0.379682
0.337737
0.348434
0.375499
0.366957
0.37145
0.362203
0.362203
0.371443
0.366957
0.375508
0.348448
0.367489
0.366989
0.366645
0.366754
0.367107
0.367116
0.36675
0.366648
0.366983
0.367481
2.49434
2.17668
2.28857
2.23302
2.35585
2.35597
2.23303
2.28863
2.17656
2.49415
)
;

boundaryField
{
    top
    {
        type            calculated;
        value           nonuniform List<scalar> 10(5.36676 4.80055 4.99679 4.90059 5.11428 5.11445 4.90061 4.99688 4.80034 5.36646);
    }
    bottom
    {
        type            calculated;
        value           nonuniform List<scalar> 10(5.36678 4.80053 4.99686 4.90057 5.11437 5.11441 4.90068 4.99687 4.80038 5.36649);
    }
    inlet
    {
        type            calculated;
        value           nonuniform List<scalar> 10(2.50515 0.368306 0.349047 0.338784 0.333664 0.333663 0.338781 0.349044 0.368304 2.50514);
    }
    outlet
    {
        type            calculated;
        value           nonuniform List<scalar> 10(2.50496 0.368299 0.349059 0.33881 0.333699 0.333699 0.338811 0.349059 0.368296 2.50494);
    }
    frontAndBack
    {
        type            empty;
    }
}


// ************************************************************************* //
