/*--------------------------------*- C++ -*----------------------------------*\
| =========                 |                                                 |
| \\      /  F ield         | OpenFOAM: The Open Source CFD Toolbox           |
|  \\    /   O peration     | Version:  5.0                                   |
|   \\  /    A nd           | Web:      www.OpenFOAM.org                      |
|    \\/     M anipulation  |                                                 |
\*---------------------------------------------------------------------------*/
FoamFile
{
    version     2.0;
    format      ascii;
    class       volScalarField;
    location    "0.5";
    object      p;
}
// * * * * * * * * * * * * * * * * * * * * * * * * * * * * * * * * * * * * * //

dimensions      [0 2 -2 0 0 0 0];

internalField   nonuniform List<scalar> 
100
(
-0.100977
-0.000531472
-5.85769e-05
0.000212794
0.0501695
-0.0502043
-0.000277753
2.39788e-06
0.000459522
0.100948
-0.0611145
0.000359357
-0.000288001
-1.88381e-05
0.0309568
-0.0309925
-4.54876e-05
0.000232642
-0.000429228
0.0610874
-0.036626
0.0006303
-0.000307196
-0.000122351
0.018863
-0.0188991
5.82268e-05
0.00025214
-0.000699408
0.0365998
-0.0218523
0.00042936
-0.000208957
-0.000102488
0.0112817
-0.0113179
3.84329e-05
0.000153886
-0.000498179
0.0218262
-0.00750405
0.000122804
-8.8605e-05
-5.51113e-05
0.00385326
-0.00388987
-8.70705e-06
3.348e-05
-0.000190989
0.00747806
0.00747646
-0.000188221
3.2835e-05
-7.88159e-06
-0.00389001
0.00385293
-5.55729e-05
-8.79938e-05
0.000121015
-0.00750227
0.0218247
-0.000494637
0.000153188
3.95421e-05
-0.0113184
0.011281
-0.000102664
-0.000208397
0.000428335
-0.0218504
0.0365986
-0.000695328
0.000251404
5.94922e-05
-0.0188998
0.018862
-0.000122372
-0.000306656
0.000629776
-0.0366236
0.0610883
-0.000423367
0.000232223
-4.36251e-05
-0.0309939
0.0309551
-1.82385e-05
-0.000287159
0.000360537
-0.0611099
0.100953
0.000469911
2.92765e-06
-0.000274226
-0.0502075
0.0501658
0.000215076
-5.68052e-05
-0.000525844
-0.100969
)
;

boundaryField
{
    top
    {
        type            zeroGradient;
    }
    bottom
    {
        type            zeroGradient;
    }
    inlet
    {
        type            fixedValue;
        value           uniform 0;
    }
    outlet
    {
        type            fixedValue;
        value           uniform 0;
    }
    frontAndBack
    {
        type            empty;
    }
}


// ************************************************************************* //
