/*--------------------------------*- C++ -*----------------------------------*\
| =========                 |                                                 |
| \\      /  F ield         | OpenFOAM: The Open Source CFD Toolbox           |
|  \\    /   O peration     | Version:  5.0                                   |
|   \\  /    A nd           | Web:      www.OpenFOAM.org                      |
|    \\/     M anipulation  |                                                 |
\*---------------------------------------------------------------------------*/
FoamFile
{
    version     2.0;
    format      ascii;
    class       volVectorField;
    location    "0.5";
    object      U;
}
// * * * * * * * * * * * * * * * * * * * * * * * * * * * * * * * * * * * * * //

dimensions      [0 1 -1 0 0 0 0];

internalField   nonuniform List<vector> 
100
(
(0.0131012 0.000677091 1.12333e-23)
(0.0121804 7.85081e-06 2.9198e-25)
(0.0124866 -6.57907e-06 6.45871e-26)
(0.0123348 1.00611e-06 2.11075e-26)
(0.0126676 -0.000322392 5.39301e-24)
(0.0126677 0.000322368 4.24816e-26)
(0.012335 -9.887e-07 4.39718e-26)
(0.0124866 6.59712e-06 6.48139e-26)
(0.0121801 -7.79986e-06 4.97976e-25)
(0.0131007 -0.000677034 -1.11469e-23)
(0.0215327 0.000148443 9.97174e-39)
(0.0204793 1.03525e-05 3.87548e-25)
(0.020817 -8.65601e-06 8.75175e-26)
(0.0206475 1.55333e-06 1.28974e-25)
(0.0210218 -6.70251e-05 -1.09209e-26)
(0.0210219 6.70009e-05 1.10269e-23)
(0.0206477 -1.54003e-06 1.18269e-25)
(0.020817 8.68044e-06 8.81829e-26)
(0.020479 -1.03055e-05 4.07959e-25)
(0.0215321 -0.000148419 -2.28482e-23)
(0.0297749 0.000137904 -2.57639e-26)
(0.0288657 3.10207e-05 -4.92844e-26)
(0.0291519 -1.51688e-05 2.64943e-28)
(0.0290067 -2.69948e-06 1.34963e-26)
(0.0293287 -5.73253e-05 -1.32408e-26)
(0.0293287 5.72844e-05 -6.93035e-24)
(0.029007 2.71878e-06 -3.62826e-26)
(0.0291519 1.52176e-05 5.57129e-26)
(0.0288654 -3.09408e-05 -2.4272e-26)
(0.0297743 -0.000137875 1.38621e-23)
(0.0379079 0.000236958 1.03325e-23)
(0.0373007 5.2241e-05 3.49672e-25)
(0.0374899 -2.09526e-05 -3.74436e-28)
(0.0373933 -7.67735e-06 5.13835e-26)
(0.0376081 -0.000100412 5.30012e-24)
(0.0376081 0.000100353 -5.28411e-24)
(0.0373936 7.70364e-06 1.95234e-26)
(0.0374898 2.10272e-05 7.69714e-26)
(0.0373004 -5.21253e-05 7.62896e-27)
(0.0379075 -0.000236913 1.03011e-23)
(0.0459767 0.000283156 -2.07395e-23)
(0.0457637 6.38715e-05 -4.37404e-25)
(0.0458298 -2.39613e-05 -1.87886e-28)
(0.0457959 -1.04796e-05 -6.5218e-26)
(0.0458713 -0.00012021 5.35203e-24)
(0.0458711 0.000120141 2.72335e-27)
(0.0457961 1.05085e-05 -1.38107e-27)
(0.0458297 2.40532e-05 -8.5145e-26)
(0.0457636 -6.37357e-05 0)
(0.0459765 -0.000283099 0)
(0.0540234 0.000283158 1.04905e-26)
(0.0542363 6.38707e-05 -4.37316e-25)
(0.0541704 -2.39591e-05 8.49873e-26)
(0.054204 -1.048e-05 -3.33193e-26)
(0.054129 -0.000120211 1.36127e-27)
(0.0541287 0.000120142 -1.26686e-38)
(0.0542041 1.05075e-05 -6.61485e-26)
(0.0541703 2.40555e-05 -1.70288e-25)
(0.0542364 -6.37343e-05 0)
(0.0540236 -0.000283101 0)
(0.0620922 0.000236963 -7.32702e-40)
(0.0626993 5.22367e-05 1.78509e-25)
(0.0625103 -2.09466e-05 7.69393e-26)
(0.0626066 -7.6795e-06 4.7433e-26)
(0.0623922 -0.000100415 -5.29223e-24)
(0.0623918 0.000100356 -5.28804e-24)
(0.0626067 7.70039e-06 -5.10729e-26)
(0.0625102 2.10329e-05 -7.73458e-26)
(0.0626997 -5.21227e-05 1.94327e-25)
(0.0620926 -0.000236918 0)
(0.0702251 0.000137909 -1.3864e-23)
(0.0711343 3.10082e-05 -5.06777e-26)
(0.0708483 -1.51623e-05 2.65707e-28)
(0.0709931 -2.70411e-06 5.8552e-26)
(0.0706715 -5.73262e-05 -1.98885e-26)
(0.0706711 5.72898e-05 -1.38736e-23)
(0.0709932 2.71195e-06 -4.32143e-26)
(0.0708481 1.52246e-05 8.29114e-26)
(0.0711347 -3.09425e-05 -1.10817e-26)
(0.0702258 -0.000137888 -2.57602e-26)
(0.0784673 0.000148465 2.27658e-23)
(0.0795206 1.0342e-05 3.88758e-25)
(0.0791831 -8.65067e-06 -1.33674e-28)
(0.0793524 1.55091e-06 1.17473e-25)
(0.0789784 -6.70277e-05 -1.10387e-23)
(0.078978 6.70056e-05 1.10373e-23)
(0.0793524 -1.54497e-06 -1.18786e-25)
(0.0791829 8.68605e-06 8.79508e-26)
(0.0795211 -1.03027e-05 -2.14105e-26)
(0.078468 -0.000148418 2.27167e-23)
(0.0868989 0.00067716 8.54832e-26)
(0.0878196 7.8843e-06 2.07834e-25)
(0.0875135 -6.5737e-06 3.12711e-28)
(0.0876651 1.02428e-06 -8.57043e-26)
(0.0873326 -0.000322412 -5.39326e-24)
(0.0873323 0.000322354 5.37123e-24)
(0.0876651 -9.7319e-07 -4.22105e-26)
(0.0875134 6.60285e-06 1.93605e-25)
(0.0878199 -7.75273e-06 1.2722e-25)
(0.0868994 -0.000676983 1.10601e-23)
)
;

boundaryField
{
    top
    {
        type            fixedValue;
        value           uniform (0.1 0 0);
    }
    bottom
    {
        type            fixedValue;
        value           uniform (0 0 0);
    }
    inlet
    {
        type            zeroGradient;
    }
    outlet
    {
        type            zeroGradient;
    }
    frontAndBack
    {
        type            empty;
    }
}


// ************************************************************************* //
