/*--------------------------------*- C++ -*----------------------------------*\
| =========                 |                                                 |
| \\      /  F ield         | OpenFOAM: The Open Source CFD Toolbox           |
|  \\    /   O peration     | Version:  5.0                                   |
|   \\  /    A nd           | Web:      www.OpenFOAM.org                      |
|    \\/     M anipulation  |                                                 |
\*---------------------------------------------------------------------------*/
FoamFile
{
    version     2.0;
    format      ascii;
    class       volScalarField;
    location    "300";
    object      p;
}
// * * * * * * * * * * * * * * * * * * * * * * * * * * * * * * * * * * * * * //

dimensions      [0 2 -2 0 0 0 0];

internalField   nonuniform List<scalar> 
7000
(
-3.78675e-07
-0.000404445
-0.000582881
-0.000582753
-0.000576065
-0.000588507
-0.000591181
-0.000577147
-0.000554446
-0.000529438
-0.000505673
-0.000480552
-0.000438127
-0.000388858
3.2301e-05
-0.000391338
-0.000584968
-0.000590759
-0.000586778
-0.000601288
-0.000606142
-0.000593878
-0.000571652
-0.000544185
-0.000512289
-0.00046947
-0.00040756
-0.000346855
3.43004e-05
-0.00039446
-0.00058936
-0.000595448
-0.00059452
-0.000612151
-0.000619412
-0.00060844
-0.000585104
-0.000551725
-0.00050615
-0.000446069
-0.000376099
-0.000318755
3.22762e-05
-0.000394126
-0.000587165
-0.000594633
-0.000597526
-0.000618787
-0.000628762
-0.000619886
-0.000597089
-0.000561376
-0.000510252
-0.000443803
-0.000370885
-0.000316979
2.75869e-05
-0.000395304
-0.000585223
-0.000593434
-0.000599241
-0.000623277
-0.000635628
-0.000629129
-0.000608102
-0.000572508
-0.000519216
-0.000449357
-0.000375256
-0.000323944
2.23161e-05
-0.000396133
-0.000582294
-0.00059115
-0.000599549
-0.000625912
-0.000640392
-0.000636352
-0.000617564
-0.000583137
-0.000529377
-0.000457965
-0.000383571
-0.000333647
1.88481e-05
-0.000395466
-0.000578969
-0.000589033
-0.00059969
-0.000627888
-0.000644227
-0.000642312
-0.000625632
-0.000592691
-0.000539288
-0.000467322
-0.000392981
-0.000344162
1.75217e-05
-0.000393657
-0.000575657
-0.000587231
-0.00059973
-0.00062924
-0.000647022
-0.000646875
-0.000632092
-0.000600653
-0.000547906
-0.000475893
-0.000401867
-0.000354172
1.69431e-05
-0.000391558
-0.000572608
-0.000585727
-0.000599636
-0.000629971
-0.000648835
-0.000650203
-0.000637007
-0.000606818
-0.000554701
-0.000482818
-0.000409168
-0.000362524
1.55582e-05
-0.000389949
-0.00057021
-0.00058465
-0.00059944
-0.000630247
-0.000649903
-0.000652377
-0.000640305
-0.000611019
-0.000559377
-0.000487595
-0.000414168
-0.000368309
1.28474e-05
-0.000389293
-0.000568817
-0.000584151
-0.000599212
-0.000630193
-0.000650347
-0.000653478
-0.000642055
-0.000613277
-0.00056186
-0.000490041
-0.000416585
-0.000371029
9.81086e-06
-0.000389566
-0.000568708
-0.000584336
-0.000599064
-0.000629966
-0.00065033
-0.000653673
-0.000642397
-0.000613671
-0.000562142
-0.000490086
-0.000416373
-0.000370618
8.31011e-06
-0.000390284
-0.000570017
-0.000585177
-0.000599118
-0.000629757
-0.000649989
-0.000653081
-0.000641455
-0.000612298
-0.00056025
-0.000487689
-0.000413543
-0.000367409
9.78251e-06
-0.000391095
-0.000572454
-0.000586616
-0.000599476
-0.000629631
-0.000649366
-0.000651769
-0.000639331
-0.000609247
-0.00055624
-0.000482891
-0.000408223
-0.000361767
1.41996e-05
-0.000391594
-0.000575409
-0.000588537
-0.000600121
-0.000629543
-0.000648473
-0.000649794
-0.000636075
-0.000604565
-0.000550181
-0.00047583
-0.000400641
-0.000353947
2.05907e-05
-0.00039132
-0.000578562
-0.000590877
-0.000600954
-0.000629383
-0.000647253
-0.000647126
-0.000631631
-0.000598218
-0.000542141
-0.000466705
-0.000391036
-0.000344133
2.79883e-05
-0.00039021
-0.000581616
-0.00059355
-0.000601942
-0.000629004
-0.000645495
-0.000643586
-0.00062587
-0.000590177
-0.000532258
-0.000455816
-0.000379707
-0.00033243
3.57155e-05
-0.000388279
-0.00058428
-0.000596345
-0.000602962
-0.000628322
-0.000643087
-0.000638978
-0.000618671
-0.000580503
-0.000520831
-0.000443606
-0.000367029
-0.000318968
4.36638e-05
-0.000385375
-0.000586305
-0.000598926
-0.000603632
-0.00062695
-0.000639706
-0.000633093
-0.000610054
-0.000569528
-0.000508445
-0.000430747
-0.000353622
-0.000304317
5.21962e-05
-0.000381264
-0.000587343
-0.000600823
-0.000603541
-0.000624642
-0.000635285
-0.000626159
-0.000600562
-0.000558089
-0.00049608
-0.000418222
-0.000340496
-0.000289653
6.1621e-05
-0.000375783
-0.000587035
-0.000601662
-0.000602464
-0.000621396
-0.000630233
-0.00061902
-0.000591334
-0.000547457
-0.00048502
-0.000407234
-0.000328933
-0.000276803
7.16779e-05
-0.000369178
-0.000585343
-0.000601341
-0.000600596
-0.000617768
-0.000625266
-0.000612632
-0.00058355
-0.000538879
-0.000476424
-0.000398856
-0.000320121
-0.000267358
8.12554e-05
-0.000362399
-0.00058263
-0.000600062
-0.000598515
-0.000614633
-0.000621323
-0.000607908
-0.000578142
-0.000533191
-0.000470931
-0.000393591
-0.000314603
-0.000261749
8.83712e-05
-0.000357152
-0.000579717
-0.000598175
-0.000596658
-0.000612637
-0.0006191
-0.000605441
-0.000575522
-0.000530581
-0.000468484
-0.000391215
-0.000312046
-0.00025928
9.15582e-05
-0.000354678
-0.000577715
-0.00059657
-0.000595704
-0.000612294
-0.000619034
-0.000605507
-0.000575688
-0.000530783
-0.000468608
-0.000391114
-0.00031169
-0.000258865
9.00971e-05
-0.00035535
-0.000577152
-0.000595836
-0.000596
-0.000613691
-0.000621129
-0.000608049
-0.000578498
-0.000533602
-0.000471108
-0.000393118
-0.000313291
-0.000260169
8.41083e-05
-0.000358899
-0.000577545
-0.000595491
-0.000597019
-0.000616288
-0.0006249
-0.000612729
-0.000583827
-0.000539119
-0.000476237
-0.000397583
-0.000317329
-0.00026391
7.51225e-05
-0.000364105
-0.000577986
-0.00059479
-0.000598075
-0.00061947
-0.000629781
-0.00061914
-0.000591504
-0.000547378
-0.000484221
-0.000404854
-0.000324308
-0.000270845
6.53584e-05
-0.000369453
-0.00057771
-0.000593184
-0.000598506
-0.000622417
-0.000634953
-0.000626585
-0.000600963
-0.000557975
-0.000494838
-0.000414788
-0.000334016
-0.000280919
5.57498e-05
-0.000374101
-0.000576337
-0.000590453
-0.000597853
-0.00062444
-0.000639664
-0.00063419
-0.000611255
-0.000570062
-0.000507408
-0.00042678
-0.000345663
-0.000293117
4.66992e-05
-0.000377492
-0.000573606
-0.000586545
-0.00059606
-0.000625353
-0.000643333
-0.000641019
-0.000621286
-0.000582587
-0.000521029
-0.000440087
-0.000358404
-0.000306023
3.87017e-05
-0.000379136
-0.000569373
-0.00058169
-0.000593501
-0.000625271
-0.000645726
-0.000646492
-0.000630188
-0.000594503
-0.000534696
-0.000453886
-0.000371517
-0.000318745
3.28691e-05
-0.000378615
-0.000563849
-0.000576462
-0.000590679
-0.000624566
-0.000647135
-0.000650593
-0.000637513
-0.000604934
-0.000547334
-0.000467201
-0.000384343
-0.000330957
3.07974e-05
-0.000375795
-0.000557677
-0.000571449
-0.000588132
-0.000623812
-0.000648067
-0.000653653
-0.000643136
-0.000613238
-0.000557889
-0.000478892
-0.000396078
-0.000342416
3.35246e-05
-0.000371049
-0.00055189
-0.000567499
-0.000586514
-0.000623617
-0.000648993
-0.000655947
-0.000647112
-0.000619115
-0.000565583
-0.000487849
-0.000405689
-0.000352446
3.98984e-05
-0.000365509
-0.000547589
-0.000565451
-0.000586292
-0.000624313
-0.000650236
-0.000657835
-0.000649831
-0.00062278
-0.00057022
-0.000493405
-0.000412233
-0.000359966
4.49175e-05
-0.000361756
-0.000545752
-0.000565505
-0.000587408
-0.000625891
-0.000652028
-0.000659772
-0.000651875
-0.000624857
-0.000572306
-0.000495702
-0.000415315
-0.000364108
4.26329e-05
-0.000363726
-0.000547586
-0.000567438
-0.000589566
-0.000628152
-0.000654248
-0.000661845
-0.000653607
-0.000626016
-0.000572772
-0.000495681
-0.000415487
-0.000364861
3.41203e-05
-0.000370646
-0.000552548
-0.000570722
-0.00059203
-0.000630113
-0.000655835
-0.000663133
-0.000654434
-0.000626112
-0.000571956
-0.000494078
-0.000413517
-0.000362674
2.64498e-05
-0.000377808
-0.000558653
-0.000574592
-0.000594063
-0.000631064
-0.000656114
-0.00066282
-0.000653409
-0.000624184
-0.000569024
-0.000490345
-0.000409161
-0.000357775
2.45429e-05
-0.000382617
-0.000564732
-0.000578605
-0.000595485
-0.000630907
-0.000654844
-0.000660357
-0.000649606
-0.000618994
-0.000562604
-0.000483221
-0.000401631
-0.000350038
2.83694e-05
-0.00038449
-0.000570017
-0.000582497
-0.000596586
-0.000630032
-0.000652284
-0.000655798
-0.000642745
-0.000609911
-0.000551886
-0.000471945
-0.000390535
-0.000339312
3.52292e-05
-0.000384073
-0.000574358
-0.000586299
-0.000597732
-0.000628888
-0.000648924
-0.000649634
-0.000633365
-0.00059751
-0.00053748
-0.000457146
-0.000376438
-0.000325963
4.27773e-05
-0.000382333
-0.000577992
-0.000590141
-0.000599022
-0.000627565
-0.000644926
-0.000642283
-0.000622293
-0.000583139
-0.000521158
-0.000440682
-0.000360811
-0.000310843
5.04961e-05
-0.000379641
-0.000580997
-0.000593908
-0.000600261
-0.000625873
-0.000640258
-0.000634096
-0.000610456
-0.000568359
-0.000504931
-0.000424616
-0.000345301
-0.000295065
5.92038e-05
-0.000375644
-0.000583009
-0.000597075
-0.000600981
-0.000623569
-0.000635035
-0.000625651
-0.000598906
-0.000554629
-0.000490455
-0.000410533
-0.000331335
-0.000280088
6.9585e-05
-0.000369949
-0.000583473
-0.000598976
-0.000600681
-0.000620585
-0.000629638
-0.00061772
-0.000588678
-0.00054308
-0.000478802
-0.000399396
-0.000320029
-0.000267718
8.11351e-05
-0.000362938
-0.000582196
-0.000599289
-0.000599343
-0.000617172
-0.000624512
-0.000610966
-0.000580567
-0.000534409
-0.000470469
-0.000391625
-0.000312049
-0.000259193
9.15211e-05
-0.000356909
-0.000579855
-0.000598071
-0.000597412
-0.000614046
-0.000620296
-0.000605908
-0.000575015
-0.000528859
-0.000465427
-0.000387078
-0.000307363
-0.000254264
9.98828e-05
-0.000355517
-0.000578619
-0.000596326
-0.000595893
-0.000612313
-0.000617956
-0.000603141
-0.000572156
-0.000526195
-0.000463166
-0.000385115
-0.00030525
-0.000251566
-0.000401794
-0.000527036
-0.00059637
-0.000606591
-0.000609079
-0.000614794
-0.000611995
-0.000597757
-0.000576155
-0.000551713
-0.00052778
-0.000502797
-0.000461811
-0.000414996
-0.000390506
-0.000526096
-0.000597378
-0.000611417
-0.000619786
-0.000630524
-0.000631167
-0.000618495
-0.00059669
-0.000569731
-0.00053957
-0.000499669
-0.000440909
-0.000382573
-0.000392058
-0.000529335
-0.000598745
-0.000613264
-0.000624687
-0.000638337
-0.000641767
-0.000631798
-0.000611312
-0.000581072
-0.000539104
-0.000483373
-0.000417828
-0.000362155
-0.000393866
-0.000530227
-0.000597663
-0.000612937
-0.000626933
-0.000643038
-0.000649041
-0.000641944
-0.000623444
-0.000592795
-0.000547246
-0.000486506
-0.000417928
-0.000364121
-0.000396281
-0.000530494
-0.000595727
-0.000611649
-0.000627517
-0.000645473
-0.000653597
-0.000649243
-0.000633633
-0.000604973
-0.000559262
-0.000496014
-0.000425408
-0.000373024
-0.000398523
-0.000529747
-0.000592905
-0.00060969
-0.000627169
-0.00064659
-0.000656634
-0.000654769
-0.000642107
-0.000616014
-0.000571325
-0.000507052
-0.000435356
-0.000383798
-0.000399185
-0.000527557
-0.000589734
-0.000607804
-0.000626755
-0.000647317
-0.000658866
-0.000659224
-0.000649167
-0.000625515
-0.000582177
-0.000517652
-0.000445408
-0.000394514
-0.000398198
-0.000524339
-0.000586465
-0.000606098
-0.000626336
-0.000647775
-0.000660516
-0.000662706
-0.000654808
-0.000633232
-0.000591162
-0.000526736
-0.000454339
-0.000404161
-0.000396322
-0.000520852
-0.00058335
-0.000604562
-0.000625867
-0.000647962
-0.000661588
-0.000665182
-0.000659023
-0.000639093
-0.000598052
-0.000533813
-0.000461429
-0.000411856
-0.000394672
-0.000517862
-0.000580801
-0.000603302
-0.000625356
-0.000647893
-0.000662145
-0.000666744
-0.000661863
-0.000643124
-0.000602786
-0.000538628
-0.000466208
-0.000417063
-0.000394345
-0.000515963
-0.000579267
-0.00060255
-0.000624923
-0.000647721
-0.000662374
-0.000667577
-0.000663449
-0.000645381
-0.000605369
-0.000541118
-0.000468528
-0.00041956
-0.000395078
-0.000515501
-0.000579236
-0.000602537
-0.000624778
-0.000647637
-0.000662432
-0.000667824
-0.000663892
-0.000645944
-0.000605836
-0.000541285
-0.000468412
-0.000419316
-0.000395917
-0.000516841
-0.000580779
-0.000603299
-0.000625028
-0.00064771
-0.000662362
-0.000667547
-0.000663328
-0.000644958
-0.000604276
-0.000539139
-0.000465849
-0.000416503
-0.00039647
-0.000519538
-0.000583461
-0.00060477
-0.00062568
-0.000647936
-0.000662193
-0.000666839
-0.000661883
-0.000642554
-0.000600786
-0.000534729
-0.000460902
-0.000411359
-0.000396392
-0.000522465
-0.00058681
-0.000606863
-0.000626723
-0.000648336
-0.000661962
-0.00066574
-0.000659607
-0.000638779
-0.000595403
-0.000528127
-0.000453731
-0.00040407
-0.000395407
-0.000525103
-0.000590475
-0.000609424
-0.00062812
-0.000648919
-0.000661663
-0.000664192
-0.000656416
-0.000633544
-0.000588092
-0.000519418
-0.000444514
-0.000394785
-0.000393652
-0.000527225
-0.000594206
-0.000612326
-0.000629773
-0.000649591
-0.000661155
-0.000661962
-0.000652015
-0.000626587
-0.000578758
-0.000508732
-0.000433467
-0.000383556
-0.00039126
-0.000528561
-0.000597687
-0.000615333
-0.000631466
-0.000650037
-0.000660042
-0.000658709
-0.00064605
-0.000617679
-0.000567441
-0.000496358
-0.000420878
-0.000370476
-0.000388023
-0.000528796
-0.000600591
-0.000617975
-0.000632719
-0.000649807
-0.000657903
-0.000654063
-0.00063834
-0.000606933
-0.000554587
-0.000482923
-0.000407342
-0.000356063
-0.000383552
-0.000527582
-0.000602433
-0.000619744
-0.000632951
-0.000648423
-0.000654613
-0.000648065
-0.00062922
-0.000595063
-0.000541214
-0.000469495
-0.000393921
-0.000341483
-0.000377598
-0.000524652
-0.000602803
-0.000620316
-0.000631901
-0.000645775
-0.000650151
-0.000641144
-0.000619615
-0.000583396
-0.000528822
-0.000457492
-0.000382038
-0.00032868
-0.000370356
-0.000520118
-0.000601577
-0.000619562
-0.000629675
-0.000642168
-0.0006451
-0.000634251
-0.000610863
-0.000573501
-0.000518955
-0.000448305
-0.00037307
-0.000319361
-0.000362743
-0.00051471
-0.00059908
-0.000617766
-0.000626856
-0.000638378
-0.000640472
-0.000628622
-0.000604325
-0.000566661
-0.000512593
-0.000442671
-0.00036766
-0.000313967
-0.000356576
-0.000509815
-0.000596114
-0.000615567
-0.000624353
-0.000635526
-0.000637432
-0.000625335
-0.000600869
-0.000563368
-0.000509782
-0.000440322
-0.000365367
-0.000311718
-0.000353684
-0.00050726
-0.000593996
-0.000613892
-0.00062318
-0.000634762
-0.000636983
-0.000625093
-0.000600799
-0.000563452
-0.000509954
-0.000440419
-0.000365243
-0.000311454
-0.000354745
-0.000507636
-0.000593329
-0.0006133
-0.000623744
-0.000636378
-0.000639315
-0.000627978
-0.000604068
-0.000566777
-0.000512915
-0.000442748
-0.000367046
-0.000312925
-0.000358971
-0.000510004
-0.000593424
-0.000613282
-0.00062534
-0.000639521
-0.000643679
-0.000633463
-0.000610418
-0.000573382
-0.000518988
-0.000447814
-0.000371376
-0.00031689
-0.000364878
-0.000513081
-0.000593298
-0.000612945
-0.00062692
-0.000643057
-0.000649001
-0.000640639
-0.000619209
-0.000582999
-0.000528297
-0.000456021
-0.000378796
-0.00032407
-0.000370791
-0.000515721
-0.000592264
-0.000611652
-0.000627683
-0.000646075
-0.00065424
-0.000648424
-0.000629455
-0.000594884
-0.000540423
-0.000467184
-0.000389124
-0.000334485
-0.0003759
-0.000517208
-0.000589988
-0.000609183
-0.00062715
-0.000647831
-0.000658522
-0.000655784
-0.000640003
-0.000607931
-0.000554463
-0.000480581
-0.000401572
-0.000347172
-0.000379916
-0.000517211
-0.000586389
-0.000605546
-0.000625266
-0.000648095
-0.000661435
-0.000661901
-0.000649712
-0.000620868
-0.000569259
-0.000495265
-0.000415241
-0.000360695
-0.000382537
-0.000515455
-0.000581529
-0.000601036
-0.000622511
-0.0006472
-0.000662844
-0.000666347
-0.000657778
-0.000632584
-0.00058361
-0.000510207
-0.000429291
-0.000374097
-0.000383288
-0.000511846
-0.000575711
-0.000596196
-0.000619512
-0.00064573
-0.000663155
-0.000669262
-0.000663887
-0.000642282
-0.00059638
-0.000524266
-0.000442857
-0.000386865
-0.000381646
-0.000506721
-0.000569503
-0.000591598
-0.000616879
-0.000644449
-0.000663126
-0.000671028
-0.00066815
-0.000649583
-0.000606637
-0.000536248
-0.000454943
-0.000398526
-0.000377512
-0.000500772
-0.000563789
-0.000587993
-0.000615256
-0.00064394
-0.000663353
-0.000672253
-0.000670991
-0.000654554
-0.000613892
-0.000545166
-0.00046448
-0.000408272
-0.000371791
-0.000495144
-0.000559615
-0.00058605
-0.000614977
-0.000644429
-0.000664145
-0.000673352
-0.000672818
-0.000657533
-0.000618178
-0.000550522
-0.000470599
-0.000415097
-0.000367577
-0.000491868
-0.00055788
-0.000585904
-0.000615845
-0.000645754
-0.00066554
-0.000674656
-0.000674168
-0.000659124
-0.000620022
-0.000552606
-0.000473142
-0.000418346
-0.000369388
-0.000493462
-0.000559319
-0.000587384
-0.000617424
-0.000647344
-0.000667072
-0.00067608
-0.000675361
-0.000659868
-0.000620195
-0.000552335
-0.000472882
-0.000418406
-0.000376376
-0.000499365
-0.00056358
-0.000590163
-0.000619165
-0.000648432
-0.000667972
-0.00067703
-0.000676115
-0.00065987
-0.00061917
-0.000550433
-0.00047065
-0.000416136
-0.000383194
-0.000506404
-0.000569227
-0.0005936
-0.000620819
-0.00064901
-0.000668138
-0.000677061
-0.00067571
-0.000658452
-0.000616384
-0.000546542
-0.000466249
-0.000411584
-0.000387026
-0.000512648
-0.000575292
-0.000597383
-0.000622432
-0.000649348
-0.000667713
-0.000675919
-0.000673419
-0.000654501
-0.000610565
-0.000539455
-0.000458736
-0.000404184
-0.000387917
-0.000517444
-0.000581169
-0.000601396
-0.000624285
-0.00064983
-0.000667019
-0.000673612
-0.000668789
-0.000647164
-0.000600682
-0.000528229
-0.000447533
-0.000393574
-0.000387023
-0.000520778
-0.000586541
-0.000605529
-0.000626475
-0.000650513
-0.000665927
-0.000669891
-0.000661721
-0.000636426
-0.000586831
-0.000513147
-0.000433087
-0.00037999
-0.000385173
-0.000522832
-0.000591288
-0.0006096
-0.000628702
-0.000650916
-0.000663931
-0.00066448
-0.000652277
-0.0006229
-0.00057028
-0.000495825
-0.000416791
-0.000364357
-0.000382274
-0.00052355
-0.000595235
-0.000613288
-0.000630434
-0.000650407
-0.000660541
-0.000657378
-0.000641042
-0.000607873
-0.00055295
-0.000478401
-0.0004004
-0.000347997
-0.000377702
-0.000522583
-0.000597997
-0.000616079
-0.000631096
-0.000648602
-0.00065583
-0.000649111
-0.000629059
-0.000592924
-0.000536733
-0.000462738
-0.000385561
-0.000332562
-0.000371129
-0.000519627
-0.000599073
-0.000617451
-0.00063033
-0.000645496
-0.000650234
-0.000640563
-0.000617629
-0.000579599
-0.000523143
-0.000450151
-0.000373607
-0.000319972
-0.000363195
-0.000515098
-0.000598338
-0.000617175
-0.00062818
-0.000641454
-0.000644366
-0.000632679
-0.000607968
-0.000569123
-0.000513168
-0.000441374
-0.000365361
-0.000311512
-0.000356076
-0.000510415
-0.000596307
-0.000615645
-0.00062541
-0.000637367
-0.000639163
-0.000626432
-0.000601013
-0.000562189
-0.000507092
-0.000436395
-0.000360797
-0.000306888
-0.000353
-0.00050829
-0.000594606
-0.000613976
-0.000623377
-0.00063479
-0.000636044
-0.000622911
-0.000597386
-0.000558865
-0.000504453
-0.00043445
-0.000359083
-0.000304767
-0.00052978
-0.000561832
-0.000593262
-0.000612775
-0.000623627
-0.000628896
-0.000626732
-0.000616341
-0.000599181
-0.000578409
-0.000556544
-0.000532488
-0.000494034
-0.000453138
-0.000527597
-0.000563979
-0.000595407
-0.000617522
-0.000632173
-0.000640883
-0.00064135
-0.000632392
-0.000615638
-0.000593727
-0.000569513
-0.000536688
-0.000485807
-0.000433713
-0.00052844
-0.000564516
-0.000594745
-0.000618418
-0.000635861
-0.000647162
-0.000650074
-0.000643522
-0.000628263
-0.000604418
-0.000570931
-0.000525936
-0.000471929
-0.000422783
-0.00052798
-0.000563916
-0.000593378
-0.000618012
-0.000637285
-0.000650637
-0.000655724
-0.00065135
-0.0006378
-0.000614662
-0.000579824
-0.000532188
-0.000476542
-0.000428868
-0.000527172
-0.000562643
-0.000591356
-0.000616754
-0.000637282
-0.000652087
-0.000658945
-0.00065685
-0.000646035
-0.000625599
-0.000592361
-0.000543969
-0.000486397
-0.000439298
-0.000526239
-0.000560866
-0.000589085
-0.000615287
-0.000636826
-0.00065276
-0.000661164
-0.000661218
-0.00065319
-0.000635711
-0.000604444
-0.000555778
-0.000496797
-0.000450024
-0.000524618
-0.000558369
-0.000586888
-0.000614039
-0.000636469
-0.000653347
-0.000663084
-0.000665051
-0.00065944
-0.000644483
-0.000614839
-0.000566029
-0.000506123
-0.00045947
-0.000522141
-0.000555199
-0.000584658
-0.000612922
-0.000636158
-0.000653802
-0.000664667
-0.000668289
-0.000664643
-0.000651576
-0.000623078
-0.000574182
-0.00051371
-0.000467262
-0.000519158
-0.000551934
-0.000582348
-0.000611748
-0.000635725
-0.000653967
-0.000665698
-0.000670655
-0.000668552
-0.000656916
-0.00062924
-0.000580288
-0.000519323
-0.000473095
-0.000516616
-0.000549267
-0.000580258
-0.000610513
-0.000635151
-0.000653818
-0.000666132
-0.000672083
-0.000671179
-0.000660607
-0.00063351
-0.000584416
-0.000522991
-0.000476891
-0.000515541
-0.000547763
-0.000578847
-0.00060951
-0.00063459
-0.000653515
-0.000666197
-0.000672794
-0.000672662
-0.000662762
-0.00063601
-0.000586698
-0.000524819
-0.000478698
-0.000515941
-0.000547711
-0.000578479
-0.000609092
-0.000634248
-0.000653262
-0.000666092
-0.000672952
-0.000673134
-0.000663528
-0.000636826
-0.000587224
-0.000524927
-0.000478553
-0.000517265
-0.000548994
-0.000579299
-0.000609438
-0.000634281
-0.000653151
-0.000665892
-0.000672672
-0.000672798
-0.000663051
-0.000636025
-0.000585969
-0.000523227
-0.00047651
-0.000519064
-0.000551334
-0.000581228
-0.000610539
-0.000634727
-0.000653206
-0.000665646
-0.000672077
-0.000671786
-0.000661452
-0.000633668
-0.000582874
-0.000519627
-0.0004726
-0.000521051
-0.000554353
-0.000583977
-0.000612302
-0.000635607
-0.000653489
-0.000665421
-0.000671239
-0.00067017
-0.000658789
-0.000629757
-0.000577886
-0.00051414
-0.000466861
-0.000523082
-0.000557633
-0.00058716
-0.000614608
-0.00063699
-0.000654111
-0.000665287
-0.000670168
-0.000667907
-0.000654959
-0.000624165
-0.000570993
-0.000506787
-0.00045934
-0.000525019
-0.000560895
-0.000590516
-0.00061731
-0.000638821
-0.000655041
-0.000665161
-0.000668698
-0.000664735
-0.000649655
-0.000616669
-0.000562169
-0.000497578
-0.000450046
-0.000526651
-0.000563792
-0.000593838
-0.000620152
-0.000640764
-0.000655885
-0.000664603
-0.000666346
-0.000660144
-0.000642455
-0.000607073
-0.000551444
-0.000486665
-0.000438972
-0.000527556
-0.000565941
-0.000596775
-0.000622628
-0.000642219
-0.000655986
-0.000662963
-0.000662483
-0.000653624
-0.000633094
-0.000595463
-0.000539158
-0.000474565
-0.000426269
-0.000527285
-0.00056692
-0.000598762
-0.000624172
-0.000642549
-0.000654696
-0.000659676
-0.000656734
-0.000645086
-0.000621855
-0.000582502
-0.000526121
-0.000462096
-0.000412993
-0.000525508
-0.000566352
-0.000599393
-0.000624404
-0.000641405
-0.000651844
-0.000654763
-0.000649402
-0.000635204
-0.000609835
-0.000569598
-0.000513767
-0.000450611
-0.000401103
-0.000522258
-0.000564278
-0.000598585
-0.000623279
-0.00063898
-0.000647782
-0.000648896
-0.000641544
-0.000625426
-0.000598776
-0.000558539
-0.000503771
-0.000441647
-0.000392343
-0.000518141
-0.000561194
-0.000596715
-0.000621224
-0.000635951
-0.000643528
-0.00064337
-0.000634729
-0.00061753
-0.000590464
-0.00055081
-0.000497273
-0.000436095
-0.000387262
-0.000514235
-0.000557927
-0.000594379
-0.000618999
-0.000633388
-0.00064045
-0.000639741
-0.000630564
-0.000613014
-0.000586058
-0.000547047
-0.000494396
-0.000433761
-0.000385237
-0.000511703
-0.000555508
-0.000592358
-0.000617455
-0.000632332
-0.000639762
-0.000639261
-0.000630172
-0.000612705
-0.000585915
-0.00054711
-0.000494571
-0.000433857
-0.000385245
-0.000511256
-0.000554539
-0.0005912
-0.000617045
-0.000633142
-0.000641767
-0.000642188
-0.000633729
-0.00061665
-0.000589962
-0.000550847
-0.000497604
-0.000436157
-0.000387074
-0.000512436
-0.000554757
-0.000590645
-0.000617316
-0.000635124
-0.000645599
-0.00064761
-0.000640415
-0.000624232
-0.000597874
-0.000558261
-0.000503788
-0.000441143
-0.000391377
-0.000514218
-0.000555265
-0.00058991
-0.000617356
-0.000637149
-0.000649916
-0.000654124
-0.000648922
-0.000634356
-0.000608899
-0.000569044
-0.000513235
-0.000449183
-0.000398721
-0.000515573
-0.000555264
-0.000588453
-0.000616497
-0.000638289
-0.000653526
-0.000660368
-0.000657803
-0.000645612
-0.000621835
-0.000582349
-0.000525444
-0.000459924
-0.000409075
-0.000515834
-0.00055412
-0.000585887
-0.000614393
-0.000637946
-0.000655615
-0.00066522
-0.00066569
-0.000656502
-0.000635206
-0.000596917
-0.000539408
-0.000472443
-0.00042149
-0.000514892
-0.000551675
-0.000582143
-0.000611092
-0.000636127
-0.000655885
-0.000668097
-0.000671649
-0.000665786
-0.000647598
-0.000611371
-0.000553955
-0.000485756
-0.000434514
-0.000512802
-0.000547992
-0.000577545
-0.000607063
-0.000633352
-0.000654755
-0.000669145
-0.000675421
-0.00067277
-0.00065798
-0.000624498
-0.000567981
-0.000499041
-0.000447057
-0.000509724
-0.000543272
-0.000572521
-0.000602888
-0.000630439
-0.000653158
-0.000669127
-0.000677526
-0.000677533
-0.000665882
-0.000635386
-0.000580398
-0.000511298
-0.000458518
-0.000505897
-0.000538032
-0.000567454
-0.000599167
-0.000628187
-0.000651986
-0.000668919
-0.000678661
-0.000680532
-0.000671318
-0.000643478
-0.000590271
-0.000521467
-0.000468374
-0.000501649
-0.00053295
-0.000563018
-0.000596471
-0.000627074
-0.000651709
-0.000669058
-0.000679405
-0.000682354
-0.000674681
-0.000648713
-0.000597009
-0.000528722
-0.00047585
-0.000497468
-0.000528816
-0.000559963
-0.000595144
-0.000627203
-0.000652426
-0.00066979
-0.000680137
-0.000683498
-0.000676514
-0.000651458
-0.000600548
-0.000532657
-0.000480323
-0.000494873
-0.000526749
-0.000558862
-0.000595217
-0.000628287
-0.00065391
-0.00067112
-0.000681128
-0.000684321
-0.000677342
-0.000652301
-0.000601405
-0.000533596
-0.000481711
-0.000496193
-0.000527973
-0.000560089
-0.000596506
-0.000629646
-0.000655304
-0.000672459
-0.000682248
-0.000685022
-0.000677505
-0.000651832
-0.000600508
-0.000532644
-0.00048089
-0.000500856
-0.000532083
-0.000563329
-0.000598628
-0.000630616
-0.000655816
-0.000673128
-0.000683081
-0.00068561
-0.000677415
-0.000650837
-0.000598837
-0.000530915
-0.000479086
-0.000505864
-0.000537267
-0.0005675
-0.000601018
-0.000631282
-0.000655644
-0.000672988
-0.000683138
-0.000685515
-0.000676647
-0.000649084
-0.000596256
-0.000528198
-0.000476273
-0.000509985
-0.00054253
-0.000572048
-0.000603657
-0.000632106
-0.000655426
-0.000672397
-0.000682294
-0.000684145
-0.000674251
-0.000645352
-0.000591498
-0.000523145
-0.00047133
-0.000513511
-0.000547636
-0.000576868
-0.000606854
-0.00063367
-0.000655811
-0.000671805
-0.000680648
-0.000681071
-0.000669297
-0.000638343
-0.000583126
-0.000514508
-0.00046314
-0.000516858
-0.000552458
-0.000581854
-0.000610702
-0.000636137
-0.000656925
-0.000671262
-0.000678093
-0.00067605
-0.000661385
-0.000627535
-0.000570635
-0.000502049
-0.000451429
-0.000519865
-0.000556739
-0.000586725
-0.000614835
-0.000638969
-0.000658071
-0.000670167
-0.000674148
-0.000668692
-0.000650373
-0.00061329
-0.000554954
-0.000486887
-0.00043699
-0.000521852
-0.000559995
-0.000590998
-0.000618558
-0.000641207
-0.000658199
-0.000667538
-0.000668084
-0.000658838
-0.000636775
-0.000596933
-0.000537976
-0.000470943
-0.000421265
-0.000522071
-0.000561661
-0.000594063
-0.000621124
-0.000641962
-0.000656456
-0.000662735
-0.000659767
-0.000646952
-0.000621801
-0.000580273
-0.000521693
-0.000456006
-0.000406154
-0.000520207
-0.000561403
-0.000595463
-0.000622027
-0.000640875
-0.000652707
-0.000656066
-0.000650039
-0.000634363
-0.000607178
-0.000565185
-0.000507822
-0.000443614
-0.00039376
-0.00051674
-0.000559566
-0.000595236
-0.000621224
-0.000638143
-0.000647635
-0.000648639
-0.00064036
-0.000622828
-0.000594725
-0.000553236
-0.000497555
-0.000434816
-0.000385422
-0.000513085
-0.000557068
-0.000593965
-0.000619426
-0.000634795
-0.00064257
-0.000642017
-0.000632446
-0.000614066
-0.000585891
-0.000545359
-0.000491301
-0.000429779
-0.00038086
-0.000510607
-0.000555033
-0.000592604
-0.000617757
-0.000632248
-0.000639101
-0.000637825
-0.00062778
-0.00060923
-0.000581321
-0.000541585
-0.000488565
-0.000427798
-0.000378838
-0.00058034
-0.000595462
-0.000612107
-0.000627796
-0.000638015
-0.000642383
-0.000640865
-0.000632891
-0.000618896
-0.000600773
-0.000580364
-0.000555816
-0.0005194
-0.000486459
-0.000583516
-0.00060076
-0.000616473
-0.000634344
-0.00064723
-0.000653533
-0.000653045
-0.000645608
-0.000631828
-0.00061366
-0.000593487
-0.000565367
-0.000522044
-0.000478383
-0.000584546
-0.000601264
-0.000616253
-0.000635545
-0.000651217
-0.000660356
-0.00066223
-0.000656195
-0.00064276
-0.000622419
-0.000594972
-0.000558761
-0.000515034
-0.000474178
-0.000582563
-0.000599395
-0.000614508
-0.000634591
-0.000651524
-0.000662556
-0.000666014
-0.000661343
-0.000648908
-0.00062912
-0.000601023
-0.000563608
-0.00051964
-0.00048042
-0.00057925
-0.000596445
-0.000612107
-0.000632974
-0.000650617
-0.000662773
-0.000667655
-0.000664705
-0.0006546
-0.000637484
-0.000611526
-0.000574176
-0.000528527
-0.000488745
-0.000575531
-0.000592861
-0.000609246
-0.000630981
-0.000649424
-0.000662577
-0.000668844
-0.000667834
-0.000660339
-0.000646136
-0.000622226
-0.000584482
-0.000536637
-0.000496444
-0.000571485
-0.000588753
-0.000606059
-0.000628725
-0.000648082
-0.000662287
-0.000669942
-0.000670879
-0.000665721
-0.000653931
-0.000631252
-0.00059271
-0.000542953
-0.000502811
-0.000566866
-0.000584109
-0.000602601
-0.000626256
-0.000646517
-0.00066167
-0.000670622
-0.000673364
-0.00067021
-0.000660076
-0.000637994
-0.000598623
-0.000547398
-0.000507859
-0.000561961
-0.000579389
-0.000599013
-0.000623699
-0.000644773
-0.000660673
-0.000670711
-0.000674981
-0.000673406
-0.000664468
-0.000642773
-0.000602767
-0.000550317
-0.000511502
-0.000557737
-0.000575419
-0.000595768
-0.000621394
-0.000643136
-0.000659533
-0.00067036
-0.000675789
-0.000675448
-0.000667483
-0.00064612
-0.000605539
-0.000552085
-0.000513741
-0.000555283
-0.000572993
-0.000593591
-0.000619764
-0.000641925
-0.000658621
-0.000669937
-0.000676127
-0.000676663
-0.000669412
-0.000648292
-0.000607228
-0.000552978
-0.000514744
-0.000554988
-0.000572555
-0.000593035
-0.000619174
-0.000641347
-0.000658137
-0.000669665
-0.000676211
-0.000677236