/*--------------------------------*- C++ -*----------------------------------*\
| =========                 |                                                 |
| \\      /  F ield         | OpenFOAM: The Open Source CFD Toolbox           |
|  \\    /   O peration     | Version:  5.0                                   |
|   \\  /    A nd           | Web:      www.OpenFOAM.org                      |
|    \\/     M anipulation  |                                                 |
\*---------------------------------------------------------------------------*/
FoamFile
{
    version     2.0;
    format      ascii;
    class       volScalarField;
    location    "300";
    object      p;
}
// * * * * * * * * * * * * * * * * * * * * * * * * * * * * * * * * * * * * * //

dimensions      [0 2 -2 0 0 0 0];

internalField   nonuniform List<scalar> 
1568
(
3.90705e-16
2.46314e-15
4.62779e-15
5.51926e-15
6.53818e-15
7.59035e-15
8.22012e-15
8.87375e-15
9.51128e-15
1.00695e-14
1.05967e-14
1.11226e-14
1.16445e-14
1.21541e-14
1.26655e-14
1.31869e-14
1.37137e-14
1.42523e-14
1.48e-14
1.53638e-14
1.59356e-14
1.65238e-14
1.70959e-14
1.75285e-14
1.78521e-14
1.8286e-14
1.89789e-14
1.99951e-14
2.11311e-14
2.21457e-14
2.28366e-14
2.3276e-14
2.3596e-14
2.40305e-14
2.45991e-14
2.5192e-14
2.57543e-14
2.63259e-14
2.68712e-14
2.74113e-14
2.79352e-14
2.846e-14
2.89659e-14
2.9481e-14
2.99924e-14
3.05176e-14
3.10537e-14
3.1625e-14
3.22281e-14
3.28847e-14
3.36317e-14
3.44988e-14
3.55017e-14
3.66452e-14
3.85488e-14
4.06291e-14
1.49636e-15
3.69054e-16
8.46818e-15
6.73015e-15
5.35827e-15
8.80856e-15
8.90255e-15
9.16265e-15
1.01451e-14
1.07555e-14
1.11693e-14
1.16693e-14
1.22127e-14
1.26862e-14
1.32037e-14
1.37181e-14
1.42149e-14
1.4739e-14
1.52635e-14
1.5802e-14
1.63269e-14
1.68986e-14
1.74532e-14
1.81043e-14
1.87022e-14
1.93435e-14
1.99151e-14
2.04297e-14
2.06763e-14
2.1281e-14
2.18456e-14
2.24601e-14
2.29592e-14
2.36569e-14
2.4189e-14
2.48271e-14
2.52772e-14
2.58875e-14
2.63547e-14
2.68821e-14
2.73851e-14
2.79693e-14
2.8424e-14
2.89345e-14
2.94093e-14
2.99597e-14
3.04831e-14
3.10728e-14
3.16404e-14
3.23799e-14
3.3234e-14
3.39953e-14
3.51164e-14
3.56621e-14
3.842e-14
3.96089e-14
3.19992e-15
5.97087e-15
2.34341e-15
6.35583e-15
7.95081e-15
8.80887e-15
8.84272e-15
9.92309e-15
1.05814e-14
1.07083e-14
1.15543e-14
1.22325e-14
1.254e-14
1.30319e-14
1.35638e-14
1.3958e-14
1.44507e-14
1.49384e-14
1.54477e-14
1.59128e-14
1.64285e-14
1.69492e-14
1.75362e-14
1.80485e-14
1.86025e-14
1.90285e-14
1.95988e-14
2.02185e-14
2.09079e-14
2.14439e-14
2.20121e-14
2.25687e-14
2.32984e-14
2.38047e-14
2.43079e-14
2.47588e-14
2.53493e-14
2.57483e-14
2.62682e-14
2.67629e-14
2.7149e-14
2.74611e-14
2.80256e-14
2.84847e-14
2.9016e-14
2.95219e-14
3.00604e-14
3.06312e-14
3.12709e-14
3.19317e-14
3.25355e-14
3.29737e-14
3.51763e-14
3.55052e-14
3.69018e-14
3.82711e-14
4.20618e-15
6.06554e-15
8.32172e-15
7.65403e-15
9.40347e-15
9.97812e-15
1.0068e-14
1.11082e-14
1.1953e-14
1.2372e-14
1.27669e-14
1.31863e-14
1.36934e-14
1.42348e-14
1.46033e-14
1.50918e-14
1.55515e-14
1.59556e-14
1.63401e-14
1.68437e-14
1.72656e-14
1.76894e-14
1.80693e-14
1.85116e-14
1.88955e-14
1.93625e-14
1.98187e-14
2.03496e-14
2.08479e-14
2.13905e-14
2.18396e-14
2.2154e-14
2.24414e-14
2.28217e-14
2.33016e-14
2.37396e-14
2.41855e-14
2.46637e-14
2.50635e-14
2.55406e-14
2.60608e-14
2.66114e-14
2.70404e-14
2.74789e-14
2.7939e-14
2.84236e-14
2.88765e-14
2.94956e-14
3.01067e-14
3.06067e-14
3.17038e-14
3.26053e-14
3.30038e-14
3.34511e-14
3.63208e-14
3.70395e-14
5.45271e-15
5.24292e-15
7.99597e-15
8.35144e-15
9.59061e-15
1.0086e-14
1.07532e-14
1.15766e-14
1.19885e-14
1.25031e-14
1.30265e-14
1.35123e-14
1.39496e-14
1.4334e-14
1.47323e-14
1.51749e-14
1.55849e-14
1.60166e-14
1.64447e-14
1.68636e-14
1.72731e-14
1.76997e-14
1.81372e-14
1.85899e-14
1.90069e-14
1.94604e-14
1.9905e-14
2.03263e-14
2.07527e-14
2.12097e-14
2.16848e-14
2.21634e-14
2.26082e-14
2.30491e-14
2.35216e-14
2.39457e-14
2.43217e-14
2.47496e-14
2.51596e-14
2.55444e-14
2.59185e-14
2.63082e-14
2.66976e-14
2.71338e-14
2.75729e-14
2.80514e-14
2.85753e-14
2.90591e-14
2.95425e-14
3.03961e-14
3.10195e-14
3.09798e-14
3.28898e-14
3.40347e-14
3.44377e-14
3.55972e-14
7.06874e-15
8.13152e-15
9.23179e-15
1.0059e-14
1.04101e-14
1.08608e-14
1.18808e-14
1.25093e-14
1.27229e-14
1.32331e-14
1.37842e-14
1.42134e-14
1.45913e-14
1.50095e-14
1.54355e-14
1.57842e-14
1.61267e-14
1.64985e-14
1.68824e-14
1.72269e-14
1.76003e-14
1.80022e-14
1.83919e-14
1.87719e-14
1.91633e-14
1.95364e-14
1.99428e-14
2.03648e-14
2.0775e-14
2.11773e-14
2.1564e-14
2.19581e-14
2.23844e-14
2.27729e-14
2.3122e-14
2.34937e-14
2.38751e-14
2.42505e-14
2.46325e-14
2.50138e-14
2.53799e-14
2.57574e-14
2.61624e-14
2.65425e-14
2.69645e-14
2.73941e-14
2.77882e-14
2.83536e-14
2.89324e-14
2.91687e-14
3.00283e-14
3.11474e-14
3.13582e-14
3.12336e-14
3.3637e-14
3.423e-14
8.51733e-15
9.47472e-15
1.02878e-14
1.08367e-14
1.15562e-14
1.22914e-14
1.2887e-14
1.32862e-14
1.37642e-14
1.42637e-14
1.46717e-14
1.501e-14
1.53638e-14
1.57325e-14
1.6074e-14
1.64138e-14
1.67622e-14
1.70889e-14
1.74112e-14
1.7753e-14
1.80903e-14
1.8403e-14
1.87197e-14
1.90486e-14
1.93881e-14
1.9724e-14
2.00672e-14
2.04072e-14
2.07559e-14
2.11032e-14
2.14161e-14
2.17192e-14
2.20451e-14
2.23668e-14
2.2681e-14
2.30108e-14
2.33641e-14
2.36865e-14
2.40078e-14
2.4349e-14
2.47037e-14
2.50547e-14
2.54041e-14
2.57565e-14
2.61371e-14
2.65258e-14
2.69252e-14
2.73804e-14
2.78024e-14
2.8412e-14
2.91109e-14
2.90557e-14
3.03747e-14
3.15145e-14
3.1917e-14
3.26751e-14
9.98678e-15
1.05007e-14
1.1345e-14
1.19347e-14
1.27422e-14
1.3259e-14
1.36029e-14
1.40001e-14
1.4521e-14
1.48864e-14
1.52399e-14
1.55917e-14
1.59363e-14
1.62505e-14
1.65451e-14
1.68504e-14
1.7155e-14
1.74466e-14
1.77379e-14
1.80327e-14
1.832e-14
1.86144e-14
1.89086e-14
1.92065e-14
1.95008e-14
1.98053e-14
2.01026e-14
2.04026e-14
2.07118e-14
2.10154e-14
2.1338e-14
2.16569e-14
2.19376e-14
2.22307e-14
2.2549e-14
2.28445e-14
2.31228e-14
2.34128e-14
2.36988e-14
2.39885e-14
2.42758e-14
2.45619e-14
2.486e-14
2.51769e-14
2.5508e-14
2.58497e-14
2.61822e-14
2.66264e-14
2.70822e-14
2.73721e-14
2.79709e-14
2.86916e-14
2.91161e-14
2.89548e-14
3.0669e-14
3.11753e-14
1.15583e-14
1.20553e-14
1.29558e-14
1.33861e-14
1.38933e-14
1.41463e-14
1.46146e-14
1.50633e-14
1.54088e-14
1.57385e-14
1.60526e-14
1.63168e-14
1.66213e-14
1.69106e-14
1.71679e-14
1.7421e-14
1.76671e-14
1.79209e-14
1.8173e-14
1.84098e-14
1.86542e-14
1.89241e-14
1.91718e-14
1.94193e-14
1.9673e-14
1.99264e-14
2.01795e-14
2.04383e-14
2.06953e-14
2.09443e-14
2.12065e-14
2.14671e-14
2.17248e-14
2.19759e-14
2.22258e-14
2.24695e-14
2.2712e-14
2.29593e-14
2.32118e-14
2.34615e-14
2.37107e-14
2.39731e-14
2.42428e-14
2.45063e-14
2.47868e-14
2.50983e-14
2.54169e-14
2.57524e-14
2.60576e-14
2.64912e-14
2.70744e-14
2.70457e-14
2.79154e-14
2.86205e-14
2.90292e-14
2.95665e-14
1.31669e-14
1.36318e-14
1.42441e-14
1.45652e-14
1.50288e-14
1.52702e-14
1.57681e-14
1.61098e-14
1.63012e-14
1.66047e-14
1.68995e-14
1.7129e-14
1.73609e-14
1.75884e-14
1.77942e-14
1.80174e-14
1.82262e-14
1.8427e-14
1.86261e-14
1.88477e-14
1.90426e-14
1.92318e-14
1.94354e-14
1.96455e-14
1.98447e-14
2.00483e-14
2.02595e-14
2.04711e-14
2.06746e-14
2.0885e-14
2.10798e-14
2.12753e-14
2.14779e-14
2.16843e-14
2.18817e-14
2.20766e-14
2.2286e-14
2.24946e-14
2.26973e-14
2.28997e-14
2.31096e-14
2.33283e-14
2.35431e-14
2.37677e-14
2.40125e-14
2.42604e-14
2.44905e-14
2.48102e-14
2.51325e-14
2.53395e-14
2.57955e-14
2.61465e-14
2.66781e-14
2.66128e-14
2.76112e-14
2.79811e-14
1.47818e-14
1.51322e-14
1.55191e-14
1.5869e-14
1.62765e-14
1.64438e-14
1.67928e-14
1.70305e-14
1.72301e-14
1.74688e-14
1.76605e-14
1.7872e-14
1.80577e-14
1.82228e-14
1.83933e-14
1.85669e-14
1.87376e-14
1.88967e-14
1.90535e-14
1.92076e-14
1.93747e-14
1.95238e-14
1.96839e-14
1.98327e-14
1.99885e-14
2.01477e-14
2.03242e-14
2.04916e-14
2.06591e-14
2.08224e-14
2.09732e-14
2.11318e-14
2.1293e-14
2.14499e-14
2.16089e-14
2.17676e-14
2.19249e-14
2.20804e-14
2.22375e-14
2.23987e-14
2.2562e-14
2.27246e-14
2.28917e-14
2.30689e-14
2.32585e-14
2.34431e-14
2.36479e-14
2.39044e-14
2.40814e-14
2.4305e-14
2.48146e-14
2.479e-14
2.51497e-14
2.56013e-14
2.60452e-14
2.6338e-14
1.64308e-14
1.67058e-14
1.69743e-14
1.72155e-14
1.75296e-14
1.76051e-14
1.78589e-14
1.80287e-14
1.81696e-14
1.83515e-14
1.85016e-14
1.86211e-14
1.87421e-14
1.88901e-14
1.90336e-14
1.91339e-14
1.92432e-14
1.93635e-14
1.94887e-14
1.9587e-14
1.97072e-14
1.98252e-14
1.99466e-14
2.00661e-14
2.02e-14
2.03101e-14
2.04034e-14
2.04858e-14
2.05912e-14
2.07143e-14
2.08484e-14
2.09731e-14
2.10836e-14
2.11927e-14
2.13052e-14
2.14297e-14
2.15376e-14
2.16464e-14
2.17622e-14
2.18779e-14
2.19906e-14
2.21151e-14
2.22408e-14
2.23703e-14
2.25073e-14
2.26392e-14
2.27718e-14
2.29449e-14
2.3139e-14
2.32698e-14
2.34663e-14
2.35743e-14
2.4126e-14
2.40717e-14
2.43976e-14
2.46878e-14
1.80858e-14
1.82717e-14
1.84393e-14
1.85692e-14
1.8762e-14
1.87725e-14
1.89654e-14
1.90776e-14
1.91345e-14
1.92294e-14
1.94029e-14
1.94764e-14
1.94797e-14
1.95889e-14
1.96604e-14
1.97219e-14
1.97934e-14
1.98654e-14
1.99338e-14
2.00011e-14
2.00598e-14
2.01315e-14
2.01854e-14
2.02361e-14
2.02912e-14
2.03668e-14
2.04553e-14
2.05603e-14
2.06417e-14
2.0688e-14
2.07373e-14
2.08002e-14
2.08664e-14
2.09401e-14
2.10057e-14
2.10586e-14
2.11306e-14
2.12018e-14
2.1268e-14
2.13345e-14
2.14017e-14
2.14746e-14
2.15456e-14
2.16279e-14
2.16619e-14
2.17521e-14
2.18748e-14
2.20172e-14
2.20565e-14
2.20568e-14
2.25071e-14
2.2449e-14
2.23755e-14
2.25247e-14
2.2997e-14
2.30381e-14
1.97565e-14
1.98344e-14
1.98521e-14
1.99261e-14
2.00227e-14
1.99605e-14
2.00701e-14
2.01131e-14
2.01246e-14
2.01581e-14
2.0207e-14
2.02152e-14
2.02278e-14
2.02885e-14
2.02789e-14
2.03015e-14
2.03348e-14
2.03492e-14
2.03607e-14
2.03897e-14
2.04131e-14
2.04337e-14
2.04577e-14
2.04979e-14
2.05175e-14
2.05367e-14
2.05357e-14
2.05363e-14
2.05529e-14
2.05869e-14
2.06138e-14
2.06405e-14
2.06559e-14
2.06739e-14
2.07046e-14
2.07159e-14
2.07437e-14
2.07617e-14
2.07774e-14
2.08035e-14
2.08247e-14
2.08367e-14
2.08472e-14
2.08925e-14
2.09063e-14
2.09347e-14
2.0949e-14
2.09773e-14
2.10511e-14
2.11244e-14
2.11023e-14
2.08467e-14
2.15388e-14
2.13865e-14
2.12044e-14
2.13473e-14
2.14229e-14
2.14108e-14
2.13038e-14
2.12799e-14
2.13031e-14
2.11502e-14
2.11771e-14
2.11393e-14
2.10646e-14
2.10615e-14
2.10057e-14
2.09794e-14
2.09782e-14
2.09148e-14
2.09044e-14
2.08872e-14
2.08577e-14
2.08264e-14
2.08074e-14
2.07872e-14
2.07593e-14
2.0726e-14
2.07111e-14
2.06988e-14
2.06766e-14
2.06416e-14
2.06111e-14
2.05622e-14
2.0529e-14
2.05185e-14
2.05032e-14
2.04745e-14
2.0451e-14
2.04172e-14
2.03942e-14
2.03781e-14
2.0348e-14
2.03164e-14
2.02969e-14
2.02679e-14
2.02422e-14
2.02204e-14
2.02156e-14
2.0155e-14
2.01414e-14
2.01138e-14
2.00691e-14
2.00922e-14
1.99864e-14
1.9823e-14
2.01069e-14
2.00017e-14
1.96844e-14
1.93487e-14
1.98962e-14
1.96993e-14
2.3102e-14
2.30561e-14
2.27399e-14
2.26216e-14
2.25836e-14
2.23338e-14
2.22889e-14
2.21773e-14
2.20397e-14
2.19893e-14
2.18325e-14
2.17329e-14
2.17219e-14
2.1618e-14
2.15474e-14
2.14732e-14
2.13951e-14
2.13303e-14
2.12591e-14
2.1178e-14
2.11046e-14
2.10472e-14
2.09579e-14
2.08623e-14
2.07781e-14
2.07109e-14
2.06697e-14
2.06353e-14
2.05706e-14
2.04821e-14
2.03822e-14
2.03066e-14
2.02419e-14
2.01776e-14
2.00915e-14
2.00249e-14
1.99441e-14
1.98816e-14
1.98103e-14
1.97328e-14
1.96566e-14
1.95892e-14
1.95028e-14
1.94036e-14
1.93854e-14
1.93073e-14
1.91348e-14
1.90345e-14
1.89905e-14
1.89646e-14
1.86862e-14
1.82218e-14
1.89463e-14
1.85726e-14
1.80463e-14
1.7997e-14
2.47546e-14
2.45541e-14
2.4163e-14
2.39879e-14
2.38443e-14
2.34917e-14
2.33856e-14
2.32055e-14
2.29998e-14
2.28715e-14
2.27127e-14
2.25651e-14
2.24396e-14
2.22983e-14
2.21677e-14
2.20398e-14
2.19243e-14
2.18029e-14
2.16848e-14
2.15655e-14
2.14523e-14
2.13346e-14
2.12249e-14
2.11251e-14
2.10206e-14
2.08937e-14
2.07492e-14
2.05992e-14
2.04746e-14
2.03644e-14
2.02606e-14
2.01519e-14
2.00286e-14
1.99092e-14
1.97939e-14
1.96793e-14
1.95616e-14
1.94433e-14
1.93212e-14
1.92042e-14
1.90829e-14
1.89632e-14
1.88305e-14
1.86896e-14
1.85609e-14
1.84154e-14
1.82453e-14
1.81735e-14
1.79142e-14
1.75725e-14
1.77812e-14
1.75611e-14
1.68337e-14
1.63942e-14
1.67953e-14
1.63684e-14
2.64193e-14
2.6203e-14
2.56024e-14
2.53093e-14
2.51053e-14
2.46623e-14
2.44761e-14
2.42271e-14
2.39494e-14
2.37524e-14
2.35468e-14
2.3343e-14
2.31566e-14
2.29735e-14
2.27979e-14
2.2631e-14
2.24643e-14
2.22924e-14
2.21308e-14
2.19689e-14
2.18113e-14
2.16344e-14
2.14737e-14
2.12969e-14
2.1135e-14
2.09648e-14
2.08222e-14
2.06515e-14
2.04994e-14
2.03186e-14
2.01622e-14
1.99786e-14
1.98241e-14
1.96456e-14
1.95009e-14
1.93198e-14
1.91702e-14
1.89914e-14
1.88419e-14
1.86611e-14
1.85021e-14
1.83152e-14
1.81575e-14
1.79557e-14
1.77794e-14
1.7595e-14
1.73752e-14
1.71035e-14
1.69652e-14
1.68081e-14
1.62984e-14
1.56569e-14
1.63665e-14
1.58332e-14
1.48299e-14
1.46765e-14
2.80447e-14
2.76559e-14
2.70162e-14
2.6603e-14
2.63346e-14
2.5812e-14
2.55446e-14
2.52291e-14
2.48829e-14
2.46367e-14
2.43663e-14
2.41138e-14
2.38646e-14
2.36536e-14
2.34155e-14
2.32188e-14
2.29806e-14
2.27981e-14
2.25605e-14
2.2382e-14
2.21374e-14
2.19674e-14
2.17241e-14
2.15478e-14
2.12955e-14
2.11239e-14
2.08684e-14
2.07008e-14
2.04422e-14
2.02712e-14
2.0005e-14
1.98359e-14
1.95841e-14
1.94187e-14
1.91614e-14
1.89979e-14
1.87486e-14
1.85814e-14
1.8331e-14
1.81585e-14
1.79055e-14
1.77282e-14
1.74711e-14
1.72613e-14
1.70039e-14
1.676e-14
1.64606e-14
1.63182e-14
1.58811e-14
1.53216e-14
1.55571e-14
1.5174e-14
1.40571e-14
1.34309e-14
1.37117e-14
1.30903e-14
2.96659e-14
2.92329e-14
2.84018e-14
2.78376e-14
2.75076e-14
2.68735e-14
2.65498e-14
2.61698e-14
2.57692e-14
2.54386e-14
2.51365e-14
2.48167e-14
2.45465e-14
2.42585e-14
2.39992e-14
2.37138e-14
2.34773e-14
2.32069e-14
2.29755e-14
2.27009e-14
2.24708e-14
2.2206e-14
2.19648e-14
2.17009e-14
2.14619e-14
2.11958e-14
2.09482e-14
2.06834e-14
2.043e-14
2.01669e-14
1.99189e-14
1.96675e-14
1.94159e-14
1.91608e-14
1.8906e-14
1.86587e-14
1.83998e-14
1.81573e-14
1.79028e-14
1.76563e-14
1.73903e-14
1.71441e-14
1.68666e-14
1.65981e-14
1.63018e-14
1.60395e-14
1.57007e-14
1.52874e-14
1.49673e-14
1.49186e-14
1.40378e-14
1.2975e-14
1.39678e-14
1.33765e-14
1.17201e-14
1.14229e-14
3.12486e-14
3.06793e-14
2.97459e-14
2.9108e-14
2.87624e-14
2.79897e-14
2.75748e-14
2.71376e-14
2.66833e-14
2.62899e-14
2.59556e-14
2.55604e-14
2.52645e-14
2.48934e-14
2.46571e-14
2.42868e-14
2.407e-14
2.36684e-14
2.34844e-14
2.30749e-14
2.29098e-14
2.24663e-14
2.23192e-14
2.18642e-14
2.17288e-14
2.12478e-14
2.1127e-14
2.06178e-14
2.05088e-14
1.99993e-14
1.99068e-14
1.93919e-14
1.93087e-14
1.88019e-14
1.87297e-14
1.82007e-14
1.81172e-14
1.76097e-14
1.75177e-14
1.70082e-14
1.68998e-14
1.63941e-14
1.62532e-14
1.57766e-14
1.56231e-14
1.51147e-14
1.48199e-14
1.44411e-14
1.41429e-14
1.31113e-14
1.31968e-14
1.32106e-14
1.15601e-14
1.02732e-14
1.08366e-14
9.91292e-15
3.27887e-14
3.20412e-14
3.11505e-14
3.01376e-14
2.98002e-14
2.90788e-14
2.85154e-14
2.80614e-14
2.75367e-14
2.71523e-14
2.66796e-14
2.63473e-14
2.59265e-14
2.56407e-14
2.5184e-14
2.49253e-14
2.44869e-14
2.42759e-14
2.37962e-14
2.36036e-14
2.31045e-14
2.29365e-14
2.2427e-14
2.22514e-14
2.17274e-14
2.15577e-14
2.10187e-14
2.08518e-14
2.02972e-14
2.01322e-14
1.95651e-14
1.93948e-14
1.88357e-14
1.8665e-14
1.81283e-14
1.80005e-14
1.74991e-14
1.73185e-14
1.68239e-14
1.66588e-14
1.61865e-14
1.60006e-14
1.55223e-14
1.52602e-14
1.47513e-14
1.44526e-14
1.40224e-14
1.36164e-14
1.29689e-14
1.28551e-14
1.22557e-14
1.04128e-14
1.14095e-14
1.091e-14
8.90056e-15
8.30554e-15
3.42821e-14
3.34269e-14
3.22925e-14
3.13205e-14
3.07624e-14
2.99389e-14
2.93547e-14
2.88231e-14
2.82276e-14
2.77933e-14
2.73031e-14
2.69169e-14
2.64127e-14
2.61038e-14
2.56093e-14
2.53614e-14
2.48206e-14
2.46214e-14
2.40569e-14
2.38984e-14
2.32848e-14
2.31722e-14
2.24979e-14
2.24351e-14
2.17229e-14
2.16938e-14
2.09408e-14
2.09399e-14
2.01423e-14
2.01682e-14
1.93431e-14
1.94004e-14
1.85817e-14
1.86626e-14
1.78249e-14
1.79165e-14
1.70525e-14
1.71659e-14
1.63735e-14
1.64405e-14
1.56152e-14
1.56798e-14
1.48959e-14
1.48709e-14
1.41384e-14
1.40716e-14
1.32245e-14
1.30251e-14
1.23583e-14
1.17948e-14
1.08847e-14
1.10679e-14
9.85533e-15
7.95303e-15
7.90447e-15
6.87884e-15
3.57474e-14
3.49811e-14
3.34098e-14
3.27419e-14
3.19117e-14
3.09485e-14
3.04522e-14
2.97538e-14
2.91942e-14
2.86294e-14
2.82511e-14
2.76463e-14
2.73583e-14
2.67675e-14
2.65578e-14
2.59114e-14
2.57718e-14
2.50412e-14
2.49807e-14
2.4163e-14
2.41747e-14
2.32746e-14
2.33407e-14
2.2376e-14
2.24801e-14
2.14586e-14
2.15796e-14
2.04901e-14
2.06691e-14
1.95474e-14
1.97851e-14
1.86933e-14
1.89546e-14
1.78476e-14
1.80914e-14
1.69368e-14
1.71872e-14
1.61252e-14
1.62457e-14
1.52126e-14
1.53615e-14
1.43546e-14
1.44308e-14
1.35215e-14
1.35316e-14
1.26468e-14
1.24828e-14
1.17184e-14
1.14231e-14
1.05413e-14
1.02581e-14
8.88733e-15
8.10235e-15
8.44392e-15
6.04537e-15
5.36507e-15
3.71086e-14
3.60521e-14
3.39598e-14
3.34251e-14
3.26214e-14
3.16807e-14
3.10916e-14
3.04463e-14
2.98335e-14
2.93021e-14
2.87881e-14
2.82796e-14
2.78362e-14
2.73308e-14
2.68835e-14
2.63815e-14
2.59917e-14
2.54606e-14
2.50895e-14
2.45415e-14
2.41881e-14
2.36246e-14
2.32899e-14
2.26675e-14
2.23765e-14
2.17566e-14
2.14677e-14
2.07554e-14
2.04284e-14
1.96653e-14
1.9311e-14
1.84887e-14
1.81599e-14
1.74396e-14
1.72721e-14
1.6639e-14
1.64877e-14
1.57169e-14
1.56482e-14
1.50566e-14
1.49562e-14
1.42598e-14
1.40743e-14
1.33469e-14
1.31112e-14
1.23962e-14
1.21489e-14
1.13993e-14
1.09477e-14
1.00378e-14
9.7591e-15
8.75363e-15
7.96143e-15
6.849e-15
5.1677e-15
4.0512e-15
3.84259e-14
3.74489e-14
3.56535e-14
3.44354e-14
3.35771e-14
3.24855e-14
3.16641e-14
3.10895e-14
3.03548e-14
2.98611e-14
2.92069e-14
2.88318e-14
2.81651e-14
2.79076e-14
2.71957e-14
2.70224e-14
2.62236e-14
2.61366e-14
2.52215e-14
2.52287e-14
2.41805e-14
2.42532e-14
2.31031e-14
2.33079e-14
2.21165e-14
2.24063e-14
2.10294e-14
2.12394e-14
1.97559e-14
2.00719e-14
1.86802e-14
1.93556e-14
1.80826e-14
1.85631e-14
1.70032e-14
1.7407e-14
1.58915e-14
1.63363e-14
1.49652e-14
1.51214e-14
1.36822e-14
1.40502e-14
1.28206e-14
1.30353e-14
1.19111e-14
1.19986e-14
1.08415e-14
1.07452e-14
9.79033e-15
9.44334e-15
8.24126e-15
7.32654e-15
6.75106e-15
5.41736e-15
3.73804e-15
2.72852e-15
3.97067e-14
3.82018e-14
3.63436e-14
3.49855e-14
3.41609e-14
3.33386e-14
3.25996e-14
3.18937e-14
3.12832e-14
3.07103e-14
3.01937e-14
2.96435e-14
2.91527e-14
2.86164e-14
2.8151e-14
2.75965e-14
2.7118e-14
2.65527e-14
2.60688e-14
2.54684e-14
2.49815e-14
2.43665e-14
2.38349e-14
2.31023e-14
2.25103e-14
2.18321e-14
2.13049e-14
2.07332e-14
2.04486e-14
1.98563e-14
1.93107e-14
1.8528e-14
1.78819e-14
1.71345e-14
1.66532e-14
1.60296e-14
1.55892e-14
1.49789e-14
1.44894e-14
1.39901e-14
1.36033e-14
1.30405e-14
1.25533e-14
1.20204e-14
1.15428e-14
1.0996e-14
1.04687e-14
9.91442e-15
9.29539e-15
8.59026e-15
7.88022e-15
7.05155e-15
6.13645e-15
4.76957e-15
3.03552e-15
1.45936e-15
4.07261e-14
3.85927e-14
3.67543e-14
3.55647e-14
3.45841e-14
3.37193e-14
3.29733e-14
3.23055e-14
3.17003e-14
3.11282e-14
3.05891e-14
3.00577e-14
2.95468e-14
2.90237e-14
2.85143e-14
2.79802e-14
2.74592e-14
2.69037e-14
2.63638e-14
2.57809e-14
2.52199e-14
2.46096e-14
2.4055e-14
2.36064e-14
2.32968e-14
2.28356e-14
2.21504e-14
2.11069e-14
1.99917e-14
1.89537e-14
1.8283e-14
1.78243e-14
1.75233e-14
1.70655e-14
1.65225e-14
1.59005e-14
1.53532e-14
1.47593e-14
1.42295e-14
1.3665e-14
1.31574e-14
1.26082e-14
1.21142e-14
1.15821e-14
1.10839e-14
1.05422e-14
1.00156e-14
9.43566e-15
8.83626e-15
8.15999e-15
7.42584e-15
6.56257e-15
5.57776e-15
4.38467e-15
2.55116e-15
4.13645e-16
)
;

boundaryField
{
    top
    {
        type            zeroGradient;
    }
    bottom
    {
        type            zeroGradient;
    }
    rotatingWall
    {
        type            zeroGradient;
    }
    wall
    {
        type            zeroGradient;
    }
    frontAndBack
    {
        type            empty;
    }
}


// ************************************************************************* //
