/*--------------------------------*- C++ -*----------------------------------*\
| =========                 |                                                 |
| \\      /  F ield         | OpenFOAM: The Open Source CFD Toolbox           |
|  \\    /   O peration     | Version:  5.0                                   |
|   \\  /    A nd           | Web:      www.OpenFOAM.org                      |
|    \\/     M anipulation  |                                                 |
\*---------------------------------------------------------------------------*/
FoamFile
{
    version     2.0;
    format      ascii;
    class       volScalarField;
    location    "74";
    object      p;
}
// * * * * * * * * * * * * * * * * * * * * * * * * * * * * * * * * * * * * * //

dimensions      [0 2 -2 0 0 0 0];

internalField   nonuniform List<scalar> 
1568
(
2.02701e-10
3.70891e-10
4.91344e-10
3.48068e-10
3.48533e-10
4.30629e-10
4.49606e-10
4.58059e-10
4.81821e-10
5.10981e-10
5.38246e-10
5.68144e-10
6.0117e-10
6.35943e-10
6.70453e-10
7.04773e-10
7.34165e-10
7.67654e-10
8.07115e-10
8.52e-10
8.95297e-10
9.43549e-10
9.96795e-10
1.05396e-09
1.10573e-09
1.15455e-09
1.19309e-09
1.23258e-09
1.26875e-09
1.30949e-09
1.34838e-09
1.38934e-09
1.42335e-09
1.45878e-09
1.48946e-09
1.52144e-09
1.54708e-09
1.57397e-09
1.59587e-09
1.61812e-09
1.63621e-09
1.65554e-09
1.67145e-09
1.68865e-09
1.70285e-09
1.71608e-09
1.7262e-09
1.73621e-09
1.74353e-09
1.75122e-09
1.75581e-09
1.76246e-09
1.79054e-09
1.78339e-09
1.80971e-09
1.81176e-09
4.37993e-10
-2.16072e-09
9.2714e-10
9.70484e-10
3.02264e-10
5.2314e-10
6.52248e-10
6.41926e-10
6.48309e-10
6.88882e-10
7.21468e-10
7.45651e-10
7.62576e-10
7.89823e-10
8.29723e-10
8.76462e-10
9.14361e-10
9.59602e-10
9.92863e-10
1.02953e-09
1.0521e-09
1.08705e-09
1.1016e-09
1.13223e-09
1.15198e-09
1.19709e-09
1.21467e-09
1.25375e-09
1.26128e-09
1.30339e-09
1.30414e-09
1.3237e-09
1.31283e-09
1.33806e-09
1.33868e-09
1.37581e-09
1.377e-09
1.40905e-09
1.41591e-09
1.44341e-09
1.45208e-09
1.48346e-09
1.48814e-09
1.50197e-09
1.50023e-09
1.51524e-09
1.52546e-09
1.54507e-09
1.55034e-09
1.5752e-09
1.59361e-09
1.60296e-09
1.65049e-09
1.48281e-09
1.79283e-09
1.78616e-09
6.18189e-10
1.87996e-10
5.19044e-10
6.28858e-10
1.83254e-10
3.36998e-10
4.7786e-10
4.85145e-10
4.67543e-10
4.66118e-10
5.23631e-10
5.73532e-10
5.9613e-10
6.24737e-10
6.62219e-10
6.90684e-10
7.25782e-10
7.58083e-10
7.96478e-10
8.33673e-10
8.80673e-10
9.27501e-10
9.80411e-10
1.02312e-09
1.0755e-09
1.11578e-09
1.15916e-09
1.19848e-09
1.24629e-09
1.28287e-09
1.32845e-09
1.38468e-09
1.4587e-09
1.50366e-09
1.53918e-09
1.56361e-09
1.59688e-09
1.61434e-09
1.63865e-09
1.65542e-09
1.66132e-09
1.6582e-09
1.67959e-09
1.69602e-09
1.71515e-09
1.72827e-09
1.74557e-09
1.75862e-09
1.75668e-09
1.74052e-09
1.76839e-09
1.76486e-09
1.80765e-09
1.75946e-09
1.74719e-09
1.74248e-09
5.53312e-10
8.64076e-10
9.94819e-10
5.35822e-10
3.80664e-10
5.59694e-10
6.26188e-10
6.193e-10
6.36848e-10
6.62303e-10
6.84625e-10
7.04637e-10
7.28282e-10
7.63101e-10
7.88329e-10
8.18865e-10
8.46093e-10
8.71827e-10
8.95539e-10
9.33334e-10
9.66271e-10
1.00356e-09
1.03317e-09
1.07046e-09
1.10414e-09
1.14602e-09
1.17737e-09
1.21612e-09
1.24561e-09
1.27806e-09
1.29694e-09
1.31774e-09
1.33322e-09
1.35341e-09
1.37549e-09
1.40498e-09
1.4288e-09
1.45576e-09
1.47668e-09
1.50867e-09
1.53344e-09
1.56261e-09
1.58473e-09
1.60563e-09
1.61608e-09
1.62691e-09
1.63759e-09
1.65345e-09
1.65841e-09
1.6639e-09
1.68007e-09
1.69253e-09
1.75705e-09
1.62577e-09
1.79318e-09
1.71398e-09
4.80022e-10
4.62313e-10
5.069e-10
3.83487e-10
5.18312e-10
6.72227e-10
6.82402e-10
6.67654e-10
6.86508e-10
7.21917e-10
7.44832e-10
7.60474e-10
7.78255e-10
8.02365e-10
8.26684e-10
8.55387e-10
8.87206e-10
9.19445e-10
9.50609e-10
9.81307e-10
1.01086e-09
1.03879e-09
1.06781e-09
1.09802e-09
1.129e-09
1.16034e-09
1.18962e-09
1.21228e-09
1.23659e-09
1.26096e-09
1.28432e-09
1.30113e-09
1.31698e-09
1.33115e-09
1.35666e-09
1.38069e-09
1.40209e-09
1.42084e-09
1.44039e-09
1.45984e-09
1.47845e-09
1.49548e-09
1.51124e-09
1.52249e-09
1.53121e-09
1.54025e-09
1.55593e-09
1.57409e-09
1.57739e-09
1.58241e-09
1.60933e-09
1.5832e-09
1.62475e-09
1.69631e-09
1.61576e-09
1.66248e-09
5.36438e-10
4.60115e-10
4.58184e-10
4.96373e-10
6.24272e-10
6.58326e-10
6.39345e-10
6.42018e-10
6.58497e-10
6.83275e-10
7.06618e-10
7.29361e-10
7.53219e-10
7.80968e-10
8.0806e-10
8.34065e-10
8.61716e-10
8.91791e-10
9.22197e-10
9.51373e-10
9.80651e-10
1.01336e-09
1.04547e-09
1.07756e-09
1.10789e-09
1.13876e-09
1.16893e-09
1.19881e-09
1.22843e-09
1.26058e-09
1.29037e-09
1.3205e-09
1.35073e-09
1.37886e-09
1.40336e-09
1.42636e-09
1.44675e-09
1.46746e-09
1.48505e-09
1.50152e-09
1.51562e-09
1.53007e-09
1.54273e-09
1.55239e-09
1.56122e-09
1.57166e-09
1.5858e-09
1.60065e-09
1.601e-09
1.60233e-09
1.62221e-09
1.60999e-09
1.63145e-09
1.52436e-09
1.65701e-09
1.63717e-09
6.03805e-10
6.4964e-10
5.97994e-10
6.19212e-10
6.81097e-10
6.62717e-10
6.35961e-10
6.53627e-10
6.81301e-10
6.98771e-10
7.17325e-10
7.39056e-10
7.61909e-10
7.85719e-10
8.09953e-10
8.34945e-10
8.61004e-10
8.87271e-10
9.15145e-10
9.43944e-10
9.74433e-10
1.0056e-09
1.03741e-09
1.06878e-09
1.10072e-09
1.13172e-09
1.16349e-09
1.19453e-09
1.22647e-09
1.25625e-09
1.28375e-09
1.31169e-09
1.34345e-09
1.37214e-09
1.39636e-09
1.41774e-09
1.44176e-09
1.46397e-09
1.48406e-09
1.50235e-09
1.52025e-09
1.53698e-09
1.55392e-09
1.56896e-09
1.58128e-09
1.59168e-09
1.60565e-09
1.61799e-09
1.61076e-09
1.60969e-09
1.64495e-09
1.61284e-09
1.61122e-09
1.65782e-09
1.61865e-09
1.59858e-09
6.51885e-10
7.54441e-10
6.68568e-10
6.51258e-10
7.04054e-10
6.91291e-10
6.6979e-10
6.89001e-10
7.19708e-10
7.33323e-10
7.4872e-10
7.67361e-10
7.88023e-10
8.09521e-10
8.31359e-10
8.55131e-10
8.79763e-10
9.04842e-10
9.30791e-10
9.5822e-10
9.8634e-10
1.0157e-09
1.04445e-09
1.07398e-09
1.10361e-09
1.1337e-09
1.16288e-09
1.19255e-09
1.22165e-09
1.2489e-09
1.27498e-09
1.30132e-09
1.32563e-09
1.35003e-09
1.37389e-09
1.39682e-09
1.41945e-09
1.44172e-09
1.46176e-09
1.48136e-09
1.49932e-09
1.51624e-09
1.53315e-09
1.54865e-09
1.55888e-09
1.56774e-09
1.58141e-09
1.59401e-09
1.58859e-09
1.59005e-09
1.61643e-09
1.60088e-09
1.61506e-09
1.53253e-09
1.61371e-09
1.57108e-09
6.88621e-10
7.76978e-10
6.88061e-10
6.63322e-10
7.25943e-10
7.20283e-10
7.04872e-10
7.21089e-10
7.46148e-10
7.6112e-10
7.73765e-10
7.85436e-10
8.04268e-10
8.2581e-10
8.46634e-10
8.69096e-10
8.92648e-10
9.17098e-10
9.42921e-10
9.69096e-10
9.95474e-10
1.02344e-09
1.05081e-09
1.07828e-09
1.10643e-09
1.13439e-09
1.1625e-09
1.19019e-09
1.21765e-09
1.24364e-09
1.27042e-09
1.296e-09
1.32005e-09
1.34322e-09
1.36715e-09
1.38984e-09
1.41147e-09
1.43153e-09
1.45107e-09
1.46971e-09
1.48713e-09
1.50302e-09
1.51855e-09
1.5315e-09
1.54004e-09
1.54868e-09
1.56339e-09
1.57453e-09
1.56692e-09
1.56642e-09
1.59489e-09
1.56848e-09
1.57401e-09
1.57601e-09
1.55176e-09
1.54076e-09
7.31312e-10
8.15283e-10
7.0763e-10
6.83737e-10
7.54128e-10
7.47212e-10
7.31737e-10
7.44829e-10
7.60622e-10
7.7248e-10
7.85096e-10
7.98682e-10
8.16038e-10
8.3469e-10
8.53887e-10
8.75866e-10
8.98461e-10
9.21918e-10
9.46604e-10
9.73092e-10
9.98165e-10
1.02372e-09
1.0505e-09
1.07815e-09
1.10538e-09
1.13285e-09
1.16012e-09
1.18712e-09
1.21365e-09
1.24089e-09
1.26722e-09
1.29302e-09
1.31741e-09
1.34194e-09
1.36584e-09
1.38849e-09
1.40996e-09
1.43054e-09
1.44972e-09
1.46778e-09
1.4842e-09
1.49976e-09
1.51449e-09
1.52775e-09
1.53654e-09
1.54474e-09
1.55835e-09
1.56997e-09
1.56213e-09
1.55904e-09
1.5824e-09
1.55873e-09
1.57433e-09
1.5248e-09
1.53843e-09
1.52162e-09
7.72108e-10
8.53493e-10
7.36135e-10
7.1624e-10
7.84728e-10
7.71141e-10
7.49854e-10
7.60472e-10
7.75978e-10
7.84641e-10
7.92882e-10
8.09197e-10
8.25644e-10
8.42234e-10
8.61234e-10
8.81692e-10
9.03054e-10
9.25463e-10
9.48825e-10
9.72405e-10
9.98406e-10
1.02433e-09
1.05119e-09
1.07715e-09
1.10459e-09
1.13142e-09
1.15777e-09
1.1832e-09
1.21021e-09
1.23766e-09
1.26395e-09
1.28955e-09
1.31471e-09
1.33933e-09
1.36346e-09
1.38599e-09
1.40748e-09
1.42789e-09
1.44732e-09
1.46529e-09
1.48199e-09
1.49764e-09
1.5129e-09
1.52651e-09
1.53578e-09
1.54297e-09
1.55704e-09
1.56882e-09
1.55956e-09
1.55521e-09
1.57864e-09
1.55386e-09
1.55443e-09
1.52716e-09
1.53105e-09
1.50416e-09
8.0823e-10
8.92429e-10
7.69398e-10
7.44837e-10
8.08382e-10
7.9189e-10
7.67479e-10
7.7585e-10
7.90744e-10
7.99024e-10
8.06303e-10
8.19256e-10
8.33887e-10
8.51048e-10
8.70859e-10
8.88471e-10
9.07578e-10
9.2928e-10
9.52333e-10
9.74429e-10
9.99807e-10
1.02581e-09
1.05064e-09
1.07537e-09
1.10299e-09
1.13047e-09
1.15594e-09
1.18045e-09
1.20726e-09
1.23522e-09
1.26204e-09
1.28743e-09
1.31175e-09
1.33584e-09
1.35909e-09
1.38175e-09
1.40326e-09
1.42399e-09
1.44343e-09
1.46172e-09
1.47857e-09
1.49501e-09
1.51063e-09
1.52423e-09
1.53335e-09
1.54024e-09
1.55364e-09
1.56577e-09
1.55558e-09
1.55094e-09
1.57455e-09
1.54506e-09
1.54973e-09
1.53123e-09
1.50025e-09
1.4884e-09
8.35754e-10
9.12098e-10
7.95956e-10
7.68101e-10
8.25328e-10
8.088e-10
7.83447e-10
7.90198e-10
8.0332e-10
8.11182e-10
8.18313e-10
8.29463e-10
8.4359e-10
8.59361e-10
8.76738e-10
8.94214e-10
9.13613e-10
9.35042e-10
9.57165e-10
9.79648e-10
1.0026e-09
1.02575e-09
1.04687e-09
1.06866e-09
1.09419e-09
1.12338e-09
1.15311e-09
1.18309e-09
1.2126e-09
1.23919e-09
1.26321e-09
1.28632e-09
1.30945e-09
1.33334e-09
1.35644e-09
1.37764e-09
1.39967e-09
1.4208e-09
1.44061e-09
1.45924e-09
1.47635e-09
1.49231e-09
1.50763e-09
1.5206e-09
1.53025e-09
1.53804e-09
1.55128e-09
1.56318e-09
1.55373e-09
1.54778e-09
1.57135e-09
1.55176e-09
1.54492e-09
1.48683e-09
1.53394e-09
1.48385e-09
8.57246e-10
9.28518e-10
8.12691e-10
7.848e-10
8.38998e-10
8.22344e-10
7.96181e-10
8.01714e-10
8.137e-10
8.19916e-10
8.25895e-10
8.35949e-10
8.49688e-10
8.63946e-10
8.78948e-10
8.96817e-10
9.16628e-10
9.3652e-10
9.57481e-10
9.8027e-10
1.00369e-09
1.02854e-09
1.05505e-09
1.08384e-09
1.11106e-09
1.13546e-09
1.15492e-09
1.17334e-09
1.19669e-09
1.22529e-09
1.25403e-09
1.28103e-09
1.3057e-09
1.32965e-09
1.35399e-09
1.37651e-09
1.39898e-09
1.41974e-09
1.43961e-09
1.45877e-09
1.47616e-09
1.49245e-09
1.50843e-09
1.52159e-09
1.53057e-09
1.53877e-09
1.55224e-09
1.56406e-09
1.5538e-09
1.54801e-09
1.57285e-09
1.54285e-09
1.54726e-09
1.53786e-09
1.49412e-09
1.47741e-09
8.70971e-10
9.3958e-10
8.24959e-10
7.96368e-10
8.50009e-10
8.32674e-10
8.05722e-10
8.10699e-10
8.21932e-10
8.27143e-10
8.32483e-10
8.42149e-10
8.54744e-10
8.68806e-10
8.83885e-10
9.00946e-10
9.18937e-10
9.3768e-10
9.58379e-10
9.80791e-10
1.0038e-09
1.02811e-09
1.05457e-09
1.08237e-09
1.10783e-09
1.13126e-09
1.15322e-09
1.17361e-09
1.19639e-09
1.22365e-09
1.25117e-09
1.2782e-09
1.30393e-09
1.32806e-09
1.35208e-09
1.3765e-09
1.39834e-09
1.41922e-09
1.43951e-09
1.45846e-09
1.47586e-09
1.49258e-09
1.50945e-09
1.52387e-09
1.53313e-09
1.54076e-09
1.5549e-09
1.56729e-09
1.55766e-09
1.55007e-09
1.57308e-09
1.56577e-09
1.55845e-09
1.4523e-09
1.55401e-09
1.48691e-09
8.79461e-10
9.61169e-10
8.35493e-10
8.02338e-10
8.5801e-10
8.39551e-10
8.12057e-10
8.16509e-10
8.27337e-10
8.32329e-10
8.3761e-10
8.46656e-10
8.58525e-10
8.72247e-10
8.87726e-10
9.04119e-10
9.21539e-10
9.40528e-10
9.60846e-10
9.81511e-10
1.0033e-09
1.02578e-09
1.0468e-09
1.06703e-09
1.08949e-09
1.11629e-09
1.14894e-09
1.18166e-09
1.21055e-09
1.23376e-09
1.2548e-09
1.27803e-09
1.30385e-09
1.32857e-09
1.3521e-09
1.37569e-09
1.39759e-09
1.41927e-09
1.44048e-09
1.45948e-09
1.47725e-09
1.49414e-09
1.51048e-09
1.52513e-09
1.53521e-09
1.54361e-09
1.55855e-09
1.57224e-09
1.56283e-09
1.55686e-09
1.58398e-09
1.55816e-09
1.55752e-09
1.5555e-09
1.51911e-09
1.49089e-09
8.80748e-10
9.52917e-10
8.33116e-10
8.04616e-10
8.62929e-10
8.43053e-10
8.15279e-10
8.19784e-10
8.30367e-10
8.35112e-10
8.39469e-10
8.47876e-10
8.59277e-10
8.72519e-10
8.86861e-10
9.02628e-10
9.19829e-10
9.38748e-10
9.58596e-10
9.7941e-10
1.00118e-09
1.02432e-09
1.04802e-09
1.07305e-09
1.09812e-09
1.12324e-09
1.1487e-09
1.17456e-09
1.20054e-09
1.22576e-09
1.25025e-09
1.27639e-09
1.30254e-09
1.32786e-09
1.35215e-09
1.37626e-09
1.39895e-09
1.42112e-09
1.4424e-09
1.46253e-09
1.48106e-09
1.49882e-09
1.51574e-09
1.53068e-09
1.54118e-09
1.55032e-09
1.56601e-09
1.58007e-09
1.57141e-09
1.56502e-09
1.59108e-09
1.58858e-09
1.57408e-09
1.45972e-09
1.60181e-09
1.51457e-09
8.77324e-10
9.55981e-10
8.37043e-10
8.03952e-10
8.6407e-10
8.44169e-10
8.16089e-10
8.20316e-10
8.30818e-10
8.35379e-10
8.39734e-10
8.47855e-10
8.59061e-10
8.71847e-10
8.86109e-10
9.0166e-10
9.18634e-10
9.36933e-10
9.56698e-10
9.77315e-10
9.99043e-10
1.02159e-09
1.04548e-09
1.0702e-09
1.09555e-09
1.12055e-09
1.14601e-09
1.17132e-09
1.19763e-09
1.22352e-09
1.24976e-09
1.27628e-09
1.303e-09
1.32837e-09
1.35358e-09
1.37781e-09
1.40148e-09
1.42413e-09
1.44615e-09
1.46643e-09
1.48555e-09
1.50392e-09
1.52194e-09
1.53766e-09
1.54888e-09
1.55871e-09
1.57505e-09
1.58993e-09
1.58176e-09
1.57848e-09
1.61038e-09
1.58272e-09
1.58312e-09
1.60388e-09
1.54774e-09
1.52918e-09
8.6848e-10
9.35796e-10
8.30122e-10
7.95943e-10
8.60354e-10
8.42542e-10
8.15313e-10
8.19735e-10
8.30457e-10
8.35317e-10
8.39626e-10
8.47661e-10
8.58849e-10
8.71847e-10
8.86029e-10
9.0162e-10
9.18245e-10
9.36404e-10
9.55578e-10
9.75833e-10
9.96981e-10
1.01951e-09
1.04271e-09
1.06691e-09
1.09178e-09
1.1175e-09
1.14332e-09
1.16967e-09
1.1962e-09
1.22312e-09
1.24944e-09
1.27617e-09
1.30259e-09
1.32846e-09
1.35393e-09
1.37888e-09
1.40296e-09
1.42626e-09
1.44868e-09
1.46972e-09
1.48961e-09
1.50857e-09
1.52705e-09
1.54329e-09
1.55563e-09
1.5662e-09
1.58389e-09
1.59955e-09
1.59349e-09
1.59033e-09
1.61891e-09
1.62145e-09
1.61576e-09
1.48999e-09
1.65451e-09
1.56735e-09
8.52771e-10
9.18887e-10
8.30391e-10
7.86565e-10
8.518e-10
8.38126e-10
8.13179e-10
8.18443e-10
8.29679e-10
8.34789e-10
8.39129e-10
8.47509e-10
8.58904e-10
8.71946e-10
8.85487e-10
9.00308e-10
9.16954e-10
9.35426e-10
9.54458e-10
9.74841e-10
9.95831e-10
1.01865e-09
1.04103e-09
1.06544e-09
1.08995e-09
1.11669e-09
1.14246e-09
1.16943e-09
1.19497e-09
1.22213e-09
1.24749e-09
1.2744e-09
1.29967e-09
1.32641e-09
1.35138e-09
1.37785e-09
1.40154e-09
1.42656e-09
1.44864e-09
1.47141e-09
1.491e-09
1.51166e-09
1.52997e-09
1.54899e-09
1.56197e-09
1.57526e-09
1.59405e-09
1.61293e-09
1.6063e-09
1.60793e-09
1.64542e-09
1.62059e-09
1.63047e-09
1.67453e-09
1.60807e-09
1.59215e-09
8.32373e-10
8.90768e-10
8.24656e-10
7.74663e-10
8.41437e-10
8.2921e-10
8.05465e-10
8.10821e-10
8.2242e-10
8.28144e-10
8.33535e-10
8.41539e-10
8.52764e-10
8.64162e-10
8.79037e-10
8.93476e-10
9.11361e-10
9.27881e-10
9.48879e-10
9.68108e-10
9.91078e-10
1.0122e-09
1.03733e-09
1.06063e-09
1.08769e-09
1.11183e-09
1.13992e-09
1.16407e-09
1.19293e-09
1.21871e-09
1.24799e-09
1.27348e-09
1.30307e-09
1.32811e-09
1.3572e-09
1.38149e-09
1.40965e-09
1.43228e-09
1.45861e-09
1.47898e-09
1.50325e-09
1.52246e-09
1.54472e-09
1.56201e-09
1.5781e-09
1.58966e-09
1.61222e-09
1.62895e-09
1.62635e-09
1.6273e-09
1.66364e-09
1.67725e-09
1.67207e-09
1.5121e-09
1.74036e-09
1.64367e-09
8.08432e-10
8.69038e-10
8.15892e-10
7.53923e-10
8.16728e-10
8.05253e-10
7.831e-10
7.89125e-10
7.99816e-10
8.05351e-10
8.10613e-10
8.19336e-10
8.31031e-10
8.42196e-10
8.55371e-10
8.68557e-10
8.86824e-10
9.04069e-10
9.25316e-10
9.44475e-10
9.68784e-10
9.90204e-10
1.01752e-09
1.04019e-09
1.07062e-09
1.0951e-09
1.12816e-09
1.15361e-09
1.18893e-09
1.21551e-09
1.25125e-09
1.27869e-09
1.31626e-09
1.34038e-09
1.37428e-09
1.39751e-09
1.43119e-09
1.45255e-09
1.48363e-09
1.50304e-09
1.53238e-09
1.55157e-09
1.57806e-09
1.59334e-09
1.61207e-09
1.62187e-09
1.647e-09
1.66185e-09
1.66082e-09
1.66249e-09
1.70477e-09
1.67095e-09
1.67981e-09
1.751e-09
1.69963e-09
1.68142e-09
7.82155e-10
8.45374e-10
7.89364e-10
7.56326e-10
8.17013e-10
8.04581e-10
7.84874e-10
7.93939e-10
8.00818e-10
8.07946e-10
8.10318e-10
8.22213e-10
8.27662e-10
8.46225e-10
8.54443e-10
8.78738e-10
8.86034e-10
9.13258e-10
9.22281e-10
9.55102e-10
9.6489e-10
1.00206e-09
1.01155e-09
1.05259e-09
1.06296e-09
1.10768e-09
1.11798e-09
1.16531e-09
1.17587e-09
1.22517e-09
1.23466e-09
1.28565e-09
1.29535e-09
1.34757e-09
1.3555e-09
1.40693e-09
1.4126e-09
1.46147e-09
1.46647e-09
1.51261e-09
1.51471e-09
1.55594e-09
1.55866e-09
1.59841e-09
1.6019e-09
1.63317e-09
1.63749e-09
1.66906e-09
1.65841e-09
1.67826e-09
1.70163e-09
1.71575e-09
1.74099e-09
1.62971e-09
1.78341e-09
1.7395e-09
7.5524e-10
8.30583e-10
7.48903e-10
7.60025e-10
8.32332e-10
8.222e-10
8.11329e-10
8.23847e-10
8.38393e-10
8.45076e-10
8.53314e-10
8.61823e-10
8.77161e-10
8.8924e-10
9.05431e-10
9.18659e-10
9.37938e-10
9.50573e-10
9.72709e-10
9.86684e-10
1.01293e-09
1.02879e-09
1.05664e-09
1.07407e-09
1.10208e-09
1.11897e-09
1.14594e-09
1.16239e-09
1.19124e-09
1.20661e-09
1.2313e-09
1.24312e-09
1.26884e-09
1.28837e-09
1.32368e-09
1.34834e-09
1.38244e-09
1.40394e-09
1.43603e-09
1.46017e-09
1.48983e-09
1.50818e-09
1.5324e-09
1.5478e-09
1.56819e-09
1.58413e-09
1.61354e-09
1.63684e-09
1.64332e-09
1.65871e-09
1.71666e-09
1.70496e-09
1.6982e-09
1.82273e-09
1.74185e-09
1.77788e-09
7.26045e-10
7.70623e-10
6.74149e-10
6.95117e-10
7.66067e-10
7.54063e-10
7.42759e-10
7.54967e-10
7.75887e-10
7.79532e-10
7.90676e-10
7.93103e-10
8.1403e-10
8.13223e-10
8.33759e-10
8.31949e-10
8.66184e-10
8.64855e-10
9.06318e-10
9.0312e-10
9.51728e-10
9.47196e-10
1.00415e-09
9.9821e-10
1.06204e-09
1.05477e-09
1.12711e-09
1.11867e-09
1.19389e-09
1.18108e-09
1.25445e-09
1.23429e-09
1.30832e-09
1.29382e-09
1.37935e-09
1.37061e-09
1.4546e-09
1.43972e-09
1.52653e-09
1.51841e-09
1.59803e-09
1.58999e-09
1.65892e-09
1.64113e-09
1.69515e-09
1.68382e-09
1.74585e-09
1.73536e-09
1.75652e-09
1.75545e-09
1.82976e-09
1.81311e-09
1.83531e-09
1.83524e-09
1.8959e-09
1.8356e-09
7.03587e-10
8.01698e-10
7.57768e-10
7.38061e-10
7.66174e-10
7.3721e-10
7.10419e-10
7.21223e-10
7.23015e-10
7.34205e-10
7.29208e-10
7.49241e-10
7.46967e-10
7.78145e-10
7.7311e-10
8.14244e-10
8.07607e-10
8.59669e-10
8.46664e-10
9.09008e-10
8.89813e-10
9.61052e-10
9.36891e-10
1.02219e-09
9.93752e-10
1.08529e-09
1.05474e-09
1.15481e-09
1.12418e-09
1.24315e-09
1.22936e-09
1.37514e-09
1.36541e-09
1.48956e-09
1.4404e-09
1.53929e-09
1.48567e-09
1.58294e-09
1.53364e-09
1.60256e-09
1.54574e-09
1.63568e-09
1.60514e-09
1.68524e-09
1.65578e-09
1.7241e-09
1.70341e-09
1.75349e-09
1.72137e-09
1.76456e-09
1.77158e-09
1.75385e-09
1.7466e-09
1.79628e-09
1.85794e-09
1.875e-09
6.70361e-10
6.85348e-10
7.45469e-10
7.15597e-10
7.57891e-10
7.75061e-10
7.8613e-10
7.93019e-10
8.01462e-10
8.05855e-10
8.18884e-10
8.24864e-10
8.39837e-10
8.49069e-10
8.7229e-10
8.80744e-10
9.02519e-10
9.10015e-10
9.366e-10
9.491e-10
9.86183e-10
1.00262e-09
1.03891e-09
1.05127e-09
1.0873e-09
1.0984e-09
1.14183e-09
1.15249e-09
1.19335e-09
1.19686e-09
1.22697e-09
1.21773e-09
1.24835e-09
1.25702e-09
1.30692e-09
1.3271e-09
1.38258e-09
1.40679e-09
1.45653e-09
1.48367e-09
1.53387e-09
1.55262e-09
1.58513e-09
1.59861e-09
1.62911e-09
1.64548e-09
1.67714e-09
1.6954e-09
1.71424e-09
1.74408e-09
1.80106e-09
1.79637e-09
1.80053e-09
1.81061e-09
1.99879e-09
1.9379e-09
6.61379e-10
6.77851e-10
6.9806e-10
7.01132e-10
7.06804e-10
7.08115e-10
7.10843e-10
7.15176e-10
7.21069e-10
7.27113e-10
7.35497e-10
7.44065e-10
7.5527e-10
7.65989e-10
7.80181e-10
7.94029e-10
8.12649e-10
8.30371e-10
8.52752e-10
8.7293e-10
8.98663e-10
9.21799e-10
9.50512e-10
9.76636e-10
1.01112e-09
1.04259e-09
1.08143e-09
1.11604e-09
1.15843e-09
1.19271e-09
1.23593e-09
1.27899e-09
1.3318e-09
1.3772e-09
1.42544e-09
1.46009e-09
1.49859e-09
1.53047e-09
1.56636e-09
1.59179e-09
1.62066e-09
1.6465e-09
1.67786e-09
1.70304e-09
1.72998e-09
1.75055e-09
1.7732e-09
1.79107e-09
1.80752e-09
1.81972e-09
1.83796e-09
1.85732e-09
1.87784e-09
1.88995e-09
1.93351e-09
1.97169e-09
)
;

boundaryField
{
    top
    {
        type            zeroGradient;
    }
    bottom
    {
        type            zeroGradient;
    }
    rotatingWall
    {
        type            zeroGradient;
    }
    wall
    {
        type            zeroGradient;
    }
    frontAndBack
    {
        type            empty;
    }
}


// ************************************************************************* //
