/*--------------------------------*- C++ -*----------------------------------*\
| =========                 |                                                 |
| \\      /  F ield         | OpenFOAM: The Open Source CFD Toolbox           |
|  \\    /   O peration     | Version:  5.0                                   |
|   \\  /    A nd           | Web:      www.OpenFOAM.org                      |
|    \\/     M anipulation  |                                                 |
\*---------------------------------------------------------------------------*/
FoamFile
{
    version     2.0;
    format      ascii;
    class       surfaceScalarField;
    location    "3.3";
    object      phi;
}
// * * * * * * * * * * * * * * * * * * * * * * * * * * * * * * * * * * * * * //

dimensions      [0 3 -1 0 0 0 0];

internalField   nonuniform List<scalar> 
85
(
0.000196879
5.49779e-07
0.000197002
-1.23442e-07
0.000196983
1.9473e-08
0.000196711
2.71324e-07
0.000196641
7.02469e-08
0.000192356
4.28479e-06
0.00018793
4.42605e-06
0.000187254
6.76483e-07
0.000186887
3.66914e-07
3.00881e-07
0.000157826
-1.95955e-07
0.000157692
1.02409e-08
0.00015768
3.18494e-08
0.000157779
1.72592e-07
0.000157431
4.17697e-07
0.000158711
3.00495e-06
0.000159521
3.6161e-06
0.000159559
6.3789e-07
0.000159656
2.70214e-07
9.80141e-07
0.000118599
-1.21247e-06
0.00011835
2.5925e-07
0.00011835
3.14978e-08
0.000118556
-3.34506e-08
0.000118222
7.52257e-07
0.000120553
6.73599e-07
0.000122444
1.72494e-06
0.000122798
2.83715e-07
0.000123167
-9.84853e-08
1.61505e-06
7.90632e-05
-1.28389e-06
7.89633e-05
3.59201e-07
7.89822e-05
1.25605e-08
7.90884e-05
-1.39666e-07
7.9165e-05
6.75651e-07
8.0192e-05
-3.53372e-07
8.13263e-05
5.9067e-07
8.15673e-05
4.26988e-08
8.18053e-05
-3.36533e-07
1.40451e-06
3.92674e-05
3.96266e-05
3.96391e-05
3.94995e-05
4.01751e-05
3.98218e-05
4.04124e-05
4.04551e-05
4.01186e-05
)
;

boundaryField
{
    top
    {
        type            calculated;
        value           uniform 0;
    }
    bottom
    {
        type            symmetryPlane;
        value           uniform 0;
    }
    inlet
    {
        type            calculated;
        value           nonuniform List<scalar> 5(-0.000197428 -0.00015708 -0.000117582 -7.89918e-05 -4.05513e-05);
    }
    outlet
    {
        type            calculated;
        value           nonuniform List<scalar> 5(0.000186586 0.000158977 0.000122532 8.20159e-05 4.15231e-05);
    }
    frontAndBack
    {
        type            empty;
        value           nonuniform 0();
    }
}


// ************************************************************************* //
