/*--------------------------------*- C++ -*----------------------------------*\
| =========                 |                                                 |
| \\      /  F ield         | OpenFOAM: The Open Source CFD Toolbox           |
|  \\    /   O peration     | Version:  5.0                                   |
|   \\  /    A nd           | Web:      www.OpenFOAM.org                      |
|    \\/     M anipulation  |                                                 |
\*---------------------------------------------------------------------------*/
FoamFile
{
    version     2.0;
    format      ascii;
    class       volVectorField;
    location    "3.3";
    object      U;
}
// * * * * * * * * * * * * * * * * * * * * * * * * * * * * * * * * * * * * * //

dimensions      [0 1 -1 0 0 0 0];

internalField   nonuniform List<vector> 
50
(
(0.986277 0.00422366 6.14975e-23)
(0.985385 -7.58033e-06 -4.39737e-23)
(0.984007 1.70286e-06 -4.61724e-23)
(0.985873 5.91986e-05 -4.61321e-23)
(0.981194 -0.00205176 3.29813e-23)
(0.985368 0.00241454 9.08004e-23)
(0.939611 0.000871303 1.29201e-23)
(0.937442 0.000170078 -4.53926e-23)
(0.936087 0.000102583 5.20772e-24)
(0.93283 -0.00212485 8.52237e-24)
(0.786148 0.00347633 -8.95567e-37)
(0.789623 -3.97312e-05 4.68478e-23)
(0.787758 3.18807e-05 5.36218e-26)
(0.789576 0.000249033 -3.73612e-23)
(0.786648 -0.00135349 -4.09474e-23)
(0.789872 0.00554133 -3.46573e-23)
(0.796566 0.00403346 -5.9465e-23)
(0.797959 0.000736763 6.57432e-23)
(0.798567 0.000340147 6.53931e-24)
(0.795583 -0.000823529 -1.48582e-22)
(0.589211 -8.74186e-05 -2.58732e-23)
(0.592921 0.000195233 -2.96638e-26)
(0.5913 3.30839e-05 2.75384e-23)
(0.592747 3.51355e-05 -5.57489e-23)
(0.591119 0.000274304 -5.46199e-23)
(0.593506 0.00254877 4.8144e-23)
(0.610722 0.00306307 4.06495e-23)
(0.613773 0.000478137 3.03818e-23)
(0.614966 2.75482e-05 -1.23606e-24)
(0.613648 -0.000456741 -5.72663e-23)
(0.39513 -0.00265941 -1.44185e-22)
(0.395006 0.00031342 3.13505e-23)
(0.394706 2.28954e-05 -4.12013e-23)
(0.39527 -9.55521e-05 -1.58889e-23)
(0.395296 0.00143893 -5.21577e-23)
(0.396744 -0.000590875 1.2299e-22)
(0.405155 0.0011393 1.18356e-23)
(0.407871 0.000148285 -2.58056e-24)
(0.407954 -0.000237184 -2.14727e-23)
(0.410056 0.00278346 -1.85502e-22)
(0.200824 -0.0113056 3.64523e-23)
(0.197126 4.40582e-05 1.57045e-23)
(0.19813 1.62411e-05 -4.94728e-23)
(0.197813 -2.83473e-06 -1.50657e-23)
(0.199138 0.00565553 3.40527e-23)
(0.199603 -0.0051668 7.95238e-25)
(0.200866 0.000632839 1.65037e-23)
(0.202405 0.000111795 1.10192e-24)
(0.20125 -1.56423e-05 0)
(0.205537 0.0115103 0)
)
;

boundaryField
{
    top
    {
        type            fixedValue;
        value           uniform (0 0 0);
    }
    bottom
    {
        type            symmetryPlane;
    }
    inlet
    {
        type            pressureInletVelocity;
        value           nonuniform List<vector> 5((0.987142 0 0) (0.785401 0 0) (0.587912 0 0) (0.394959 0 0) (0.202756 0 0));
    }
    outlet
    {
        type            inletOutlet;
        inletValue      uniform (1 0 0);
        value           nonuniform List<vector> 5((0.93283 -0.00212485 8.52237e-24) (0.795583 -0.000823529 -1.48582e-22) (0.613648 -0.000456741 -5.72663e-23) (0.410056 0.00278346 -1.85502e-22) (0.205537 0.0115103 0));
    }
    frontAndBack
    {
        type            empty;
    }
}


// ************************************************************************* //
