/*--------------------------------*- C++ -*----------------------------------*\
| =========                 |                                                 |
| \\      /  F ield         | OpenFOAM: The Open Source CFD Toolbox           |
|  \\    /   O peration     | Version:  5.0                                   |
|   \\  /    A nd           | Web:      www.OpenFOAM.org                      |
|    \\/     M anipulation  |                                                 |
\*---------------------------------------------------------------------------*/
FoamFile
{
    version     2.0;
    format      ascii;
    class       surfaceScalarField;
    location    "306";
    object      phi;
}
// * * * * * * * * * * * * * * * * * * * * * * * * * * * * * * * * * * * * * //

dimensions      [0 3 -1 0 0 0 0];

internalField   nonuniform List<scalar> 
3052
(
3.35584e-23
-7.35261e-23
1.69915e-22
-1.37063e-22
3.82392e-22
-2.13135e-22
6.35468e-22
-2.53638e-22
9.26248e-22
-2.91286e-22
1.25925e-21
-3.33439e-22
1.618e-21
-3.59157e-22
1.99688e-21
-3.7928e-22
2.39259e-21
-3.96089e-22
2.79868e-21
-4.06451e-22
3.20956e-21
-4.11218e-22
3.62105e-21
-4.11822e-22
4.029e-21
-4.08268e-22
4.4291e-21
-4.00408e-22
4.81766e-21
-3.88866e-22
5.19132e-21
-3.73946e-22
5.54677e-21
-3.55726e-22
5.88117e-21
-3.34655e-22
6.1918e-21
-3.1087e-22
6.47636e-21
-2.84772e-22
6.7326e-21
-2.56438e-22
6.95879e-21
-2.26357e-22
7.15318e-21
-1.94534e-22
7.31385e-21
-1.60781e-22
7.44055e-21
-1.26791e-22
7.53342e-21
-9.29421e-23
7.58967e-21
-5.62935e-23
7.60846e-21
-1.87942e-23
7.58994e-21
1.85478e-23
7.53409e-21
5.59124e-23
7.44158e-21
9.26201e-23
7.31525e-21
1.26477e-22
7.15485e-21
1.60598e-22
6.96089e-21
1.94178e-22
6.73513e-21
2.26021e-22
6.47948e-21
2.55933e-22
6.19526e-21
2.84514e-22
5.88519e-21
3.10383e-22
5.55121e-21
3.34303e-22
5.19614e-21
3.55384e-22
4.82283e-21
3.73626e-22
4.43477e-21
3.88373e-22
4.03501e-21
4.00081e-22
3.62756e-21
4.07772e-22
3.21632e-21
4.11576e-22
2.80582e-21
4.10853e-22
2.40055e-21
4.05619e-22
2.00568e-21
3.95243e-22
1.62639e-21
3.79706e-22
1.2686e-21
3.58123e-22
9.3886e-22
3.30119e-22
6.44295e-22
2.95016e-22
3.92374e-22
2.52269e-22
1.90842e-22
2.01954e-22
5.73217e-23
1.33837e-22
5.73668e-23
4.2471e-23
-1.16663e-22
1.63449e-22
-2.60069e-22
3.37908e-22
-3.89363e-22
5.71036e-22
-4.88349e-22
8.51093e-22
-5.7273e-22
1.15633e-21
-6.39962e-22
1.48891e-21
-6.92949e-22
1.84357e-21
-7.35085e-22
2.21174e-21
-7.65349e-22
2.58915e-21
-7.84913e-22
2.97198e-21
-7.9505e-22
3.35544e-21
-7.96239e-22
3.73513e-21
-7.88883e-22
4.10757e-21
-7.73747e-22
4.46935e-21
-7.515e-22
4.81708e-21
-7.22495e-22
5.1479e-21
-6.87314e-22
5.45907e-21
-6.46536e-22
5.74812e-21
-6.00578e-22
6.01275e-21
-5.49978e-22
6.25101e-21
-4.95207e-22
6.46104e-21
-4.36828e-22
6.64139e-21
-3.75239e-22
6.79137e-21
-3.11047e-22
6.91029e-21
-2.45929e-22
6.9964e-21
-1.79177e-22
7.04904e-21
-1.08987e-22
7.06692e-21
-3.66283e-23
7.04951e-21
3.61028e-23
6.99716e-21
1.08531e-22
6.91131e-21
1.78847e-22
6.79273e-21
2.45548e-22
6.64327e-21
3.10665e-22
6.46336e-21
3.74779e-22
6.2537e-21
4.36448e-22
6.01576e-21
4.94698e-22
5.75164e-21
5.49514e-22
5.46294e-21
5.99989e-22
5.15221e-21
6.45951e-22
4.82188e-21
6.86638e-22
4.4746e-21
7.21833e-22
4.11315e-21
7.50765e-22
3.74108e-21
7.73099e-22
3.36175e-21
7.88101e-22
2.97893e-21
7.95432e-22
2.59653e-21
7.94286e-22
2.21907e-21
7.842e-22
1.85116e-21
7.64323e-22
1.49796e-21
7.33958e-22
1.1652e-21
6.92109e-22
8.58395e-22
6.38174e-22
5.84323e-22
5.70136e-22
3.51955e-22
4.85962e-22
1.71441e-22
3.83429e-22
4.93821e-23
2.57006e-22
1.06804e-22
2.96786e-23
-1.46951e-22
1.3831e-22
-3.69962e-22
3.01691e-22
-5.53889e-22
5.15548e-22
-7.0323e-22
7.6535e-22
-8.23504e-22
1.04864e-21
-9.24151e-22
1.35727e-21
-1.00241e-21
1.68445e-21
-1.06305e-21
2.02542e-21
-1.10706e-21
2.37557e-21
-1.13576e-21
2.73022e-21
-1.15036e-21
3.08517e-21
-1.15182e-21
3.43699e-21
-1.14131e-21
3.7821e-21
-1.11943e-21
4.11712e-21
-1.08705e-21
4.43912e-21
-1.045e-21
4.74547e-21
-9.94119e-22
5.03349e-21
-9.34975e-22
5.301e-21
-8.6846e-22
5.54593e-21
-7.95232e-22
5.7665e-21
-7.16053e-22
5.961e-21
-6.31559e-22
6.1282e-21
-5.42618e-22
6.26706e-21
-4.50044e-22
6.37607e-21
-3.55017e-22
6.45403e-21
-2.57177e-22
6.50113e-21
-1.56062e-22
6.51701e-21
-5.24444e-23
6.50136e-21
5.18806e-23
6.4546e-21
1.55474e-22
6.37706e-21
2.56632e-22
6.26839e-21
3.54509e-22
6.12982e-21
4.49592e-22
5.96292e-21
5.42077e-22
5.76884e-21
6.30966e-22
5.54863e-21
7.15393e-22
5.3041e-21
7.94566e-22
5.03692e-21
8.67713e-22
4.74927e-21
9.3418e-22
4.44325e-21
9.93262e-22
4.12161e-21
1.0441e-21
3.78695e-21
1.08607e-21
3.44232e-21
1.11842e-21
3.09077e-21
1.14035e-21
2.73603e-21
1.15091e-21
2.38174e-21
1.14937e-21
2.03202e-21
1.13471e-21
1.69133e-21
1.10582e-21
1.36446e-21
1.06182e-21
1.05622e-21
1.00117e-21
7.73606e-22
9.21615e-22
5.22878e-22
8.21985e-22
3.10175e-22
6.99396e-22
1.45412e-22
5.49463e-22
3.88885e-23
3.64117e-22
1.45737e-22
3.19476e-23
-1.79118e-22
1.24712e-22
-4.63348e-22
2.67946e-22
-6.97702e-22
4.58503e-22
-8.94365e-22
6.88261e-22
-1.05381e-21
9.45838e-22
-1.18226e-21
1.22784e-21
-1.28491e-21
1.52815e-21
-1.36381e-21
1.84125e-21
-1.42057e-21
2.16285e-21
-1.45774e-21
2.48904e-21
-1.47691e-21
2.8158e-21
-1.47892e-21
3.13938e-21
-1.46521e-21
3.45674e-21
-1.43708e-21
3.76491e-21
-1.39547e-21
4.06113e-21
-1.34144e-21
4.34279e-21
-1.27597e-21
4.6077e-21
-1.20005e-21
4.85371e-21
-1.1146e-21
5.07894e-21
-1.02056e-21
5.28167e-21
-9.18866e-22
5.46052e-21
-8.10464e-22
5.61417e-21
-6.96304e-22
5.74146e-21
-5.77348e-22
5.84101e-21
-4.54564e-22
5.9121e-21
-3.28227e-22
5.9547e-21
-1.98613e-22
5.96902e-21
-6.66915e-23
5.95505e-21
6.59366e-23
5.91269e-21
1.97929e-22
5.84184e-21
3.27581e-22
5.74252e-21
4.53931e-22
5.61558e-21
5.76649e-22
5.46217e-21
6.9561e-22
5.28358e-21
8.09712e-22
5.08104e-21
9.18105e-22
4.85612e-21
1.01969e-21
4.61037e-21
1.1137e-21
4.34578e-21
1.19905e-21
4.06444e-21
1.27491e-21
3.76856e-21
1.34034e-21
3.46064e-21
1.39439e-21
3.14353e-21
1.43595e-21
2.82021e-21
1.46412e-21
2.49385e-21
1.47777e-21
2.16798e-21
1.47573e-21
1.84649e-21
1.45675e-21
1.53338e-21
1.41958e-21
1.23336e-21
1.36236e-21
9.51905e-22
1.28332e-21
6.9353e-22
1.18079e-21
4.64186e-22
1.05182e-21
2.73349e-22
8.91136e-22
1.27846e-22
6.95442e-22
3.49059e-23
4.57913e-22
1.80679e-22
3.14973e-23
-2.10766e-22
1.08103e-22
-5.40147e-22
2.38962e-22
-8.28792e-22
4.08507e-22
-1.06417e-21
6.13194e-22
-1.25879e-21
8.46147e-22
-1.41551e-21
1.1016e-21
-1.54066e-21
1.37393e-21
-1.6364e-21
1.6587e-21
-1.70558e-21
1.95176e-21
-1.75103e-21
2.24878e-21
-1.77413e-21
2.54635e-21
-1.77667e-21
2.84137e-21
-1.76039e-21
3.13075e-21
-1.72659e-21
3.41169e-21
-1.67652e-21
3.68172e-21
-1.61156e-21
3.9385e-21
-1.53281e-21
4.17994e-21
-1.44153e-21
4.40411e-21
-1.3388e-21
4.60934e-21
-1.2258e-21
4.79405e-21
-1.10358e-21
4.95693e-21
-9.73333e-22
5.09672e-21
-8.36065e-22
5.21238e-21
-6.92974e-22
5.30284e-21
-5.44976e-22
5.36757e-21
-3.92899e-22
5.4064e-21
-2.37376e-22
5.41943e-21
-7.96439e-23
5.40657e-21
7.88666e-23
5.36795e-21
2.36605e-22
5.30347e-21
3.92112e-22
5.21321e-21
5.44213e-22
5.0977e-21
6.92187e-22
4.95808e-21
8.35248e-22
4.7954e-21
9.72422e-22
4.61092e-21
1.10263e-21
4.4059e-21
1.22478e-21
4.18198e-21
1.33772e-21
3.94075e-21
1.44042e-21
3.68417e-21
1.53167e-21
3.41437e-21
1.61037e-21
3.13372e-21
1.6753e-21
2.84459e-21
1.72539e-21
2.5498e-21
1.75924e-21
2.25234e-21
1.77558e-21
1.95547e-21
1.77302e-21
1.66266e-21
1.74998e-21
1.37809e-21
1.70455e-21
1.10583e-21
1.6352e-21
8.4995e-22
1.53972e-21
6.16743e-22
1.4144e-21
4.12687e-22
1.25656e-21
2.41043e-22
1.06316e-21
1.10312e-22
8.27124e-22
2.79303e-23
5.40546e-22
2.08635e-22
2.36235e-23
-2.34345e-22
9.60427e-23
-6.12607e-22
2.09099e-22
-9.4192e-22
3.60101e-22
-1.2153e-21
5.41841e-22
-1.4407e-21
7.4978e-22
-1.62365e-21
9.78201e-22
-1.76929e-21
1.22237e-21
-1.88077e-21
1.4782e-21
-1.9616e-21
1.74164e-21
-2.01464e-21
2.00901e-21
-2.04165e-21
2.27715e-21
-2.04494e-21
2.54301e-21
-2.02635e-21
2.80379e-21
-1.98744e-21
3.05703e-21
-1.92983e-21
3.30041e-21
-1.85498e-21
3.53187e-21
-1.76429e-21
3.74946e-21
-1.65913e-21
3.95149e-21
-1.54083e-21
4.13637e-21
-1.41066e-21
4.30275e-21
-1.26995e-21
4.44937e-21
-1.11992e-21
4.57518e-21
-9.61847e-22
4.67919e-21
-7.9694e-22
4.76063e-21
-6.26362e-22
4.81893e-21
-4.51147e-22
4.85398e-21
-2.72362e-22
4.8657e-21
-9.12916e-23
4.85409e-21
9.05364e-23
4.81916e-21
2.7159e-22
4.76095e-21
4.50357e-22
4.67965e-21
6.2553e-22
4.57579e-21
7.96061e-22
4.45014e-21
9.60909e-22
4.30363e-21
1.11894e-21
4.13739e-21
1.2689e-21
3.95263e-21
1.40958e-21
3.75075e-21
1.53968e-21
3.53333e-21
1.65794e-21
3.30207e-21
1.76308e-21
3.05887e-21
1.85376e-21
2.80578e-21
1.92862e-21
2.54517e-21
1.98626e-21
2.2795e-21
2.02519e-21
2.01152e-21
2.04388e-21
1.74425e-21
2.04061e-21
1.48103e-21
2.01356e-21
1.22514e-21
1.96088e-21
9.80677e-22
1.88002e-21
7.52707e-22
1.76811e-21
5.44805e-22
1.62286e-21
3.61354e-22
1.44031e-21
2.10729e-22
1.21435e-21
9.76873e-23
9.40291e-22
2.64001e-23
6.12438e-22
2.35055e-22
2.10275e-23
-2.55422e-22
8.37648e-23
-6.75399e-22
1.82245e-22
-1.0405e-21
3.13839e-22
-1.34703e-21
4.73167e-22
-1.60019e-21
6.55829e-22
-1.8065e-21
8.57139e-22
-1.97079e-21
1.07301e-21
-2.09684e-21
1.29952e-21
-2.1883e-21
1.53292e-21
-2.24821e-21
1.77012e-21
-2.279e-21
2.00814e-21
-2.2831e-21
2.2442e-21
-2.26252e-21
2.47585e-21
-2.21919e-21
2.70085e-21
-2.1549e-21
2.9171e-21
-2.07129e-21
3.12275e-21
-1.96998e-21
3.31607e-21
-1.85249e-21
3.49554e-21
-1.72033e-21
3.65977e-21
-1.57491e-21
3.80752e-21
-1.41771e-21
3.9377e-21
-1.2501e-21
4.04935e-21
-1.07349e-21
4.14164e-21
-8.89202e-22
4.2139e-21
-6.98593e-22
4.26569e-21
-5.02895e-22
4.29682e-21
-3.03444e-22
4.30724e-21
-1.01657e-22
4.29691e-21
1.00927e-22
4.26584e-21
3.02717e-22
4.21411e-21
5.02151e-22
4.1419e-21
6.97793e-22
4.04966e-21
8.88355e-22
3.93806e-21
1.07257e-21
3.80793e-21
1.24913e-21
3.66022e-21
1.41667e-21
3.49607e-21
1.57382e-21
3.31668e-21
1.71918e-21
3.12346e-21
1.85131e-21
2.91794e-21
1.96877e-21
2.70181e-21
2.07008e-21
2.47696e-21
2.1537e-21
2.24546e-21
2.21802e-21
2.00953e-21
2.2614e-21
1.77166e-21
2.28203e-21
1.53455e-21
2.27806e-21
1.30108e-21
2.24737e-21
1.07472e-21
2.18754e-21
8.59045e-22
2.09612e-21
6.57153e-22
1.97043e-21
4.74095e-22
1.80619e-21
3.15371e-22
1.59945e-21
1.83272e-22
1.34667e-21
8.31946e-23
1.04105e-21
2.1026e-23
6.74625e-22
2.56094e-22
1.90237e-23
-2.74442e-22
7.13918e-23
-7.27927e-22
1.56156e-22
-1.1254e-21
2.68973e-22
-1.45999e-21
4.06355e-22
-1.73775e-21
5.64235e-22
-1.96457e-21
7.38523e-22
-2.14529e-21
9.25727e-22
-2.28425e-21
1.12249e-21
-2.38527e-21
1.32554e-21
-2.45145e-21
1.53208e-21
-2.48571e-21
1.73942e-21
-2.49058e-21
1.94516e-21
-2.4684e-21
2.14714e-21
-2.42128e-21
2.34333e-21
-2.35119e-21
2.53193e-21
-2.25997e-21
2.71128e-21
-2.1494e-21
2.87989e-21
-2.02116e-21
3.03639e-21
-1.87688e-21
3.17959e-21
-1.71815e-21
3.3084e-21
-1.54655e-21
3.42187e-21
-1.36358e-21
3.51915e-21
-1.17078e-21
3.59957e-21
-9.69615e-22
3.66255e-21
-7.61565e-22
3.70774e-21
-5.48061e-22
3.73491e-21
-3.30577e-22
3.74396e-21
-1.10658e-22
3.73489e-21
1.10065e-22
3.70772e-21
3.29964e-22
3.66253e-21
5.47421e-22
3.59954e-21
7.60881e-22
3.51911e-21
9.68876e-22
3.42182e-21
1.16997e-21
3.30837e-21
1.3627e-21
3.17959e-21
1.54558e-21
3.03643e-21
1.71712e-21
2.87998e-21
1.87578e-21
2.71143e-21
2.02002e-21
2.53215e-21
2.14824e-21
2.34364e-21
2.2588e-21
2.14754e-21
2.35002e-21
1.94566e-21
2.42014e-21
1.74001e-21
2.46731e-21
1.53273e-21
2.48959e-21
1.32628e-21
2.4848e-21
1.12334e-21
2.45061e-21
9.26612e-22
2.38462e-21
7.39189e-22
2.28385e-21
5.65137e-22
2.14477e-21
4.07466e-22
1.96424e-21
2.69105e-22
1.73804e-21
1.56047e-22
1.46005e-21
7.1933e-23
1.12508e-21
1.91327e-23
7.2784e-22
2.75236e-22
1.56091e-23
-2.90154e-22
5.97117e-23
-7.72176e-22
1.30813e-22
-1.19666e-21
2.25707e-22
-1.55504e-21
3.41427e-22
-1.85363e-21
4.74526e-22
-2.09784e-21
6.21859e-22
-2.29279e-21
7.80392e-22
-2.44296e-21
9.47149e-22
-2.5522e-21
1.11946e-21
-2.62392e-21
1.2949e-21
-2.66129e-21
1.47114e-21
-2.66695e-21
1.64609e-21
-2.64346e-21
1.81788e-21
-2.59317e-21
1.9848e-21
-2.51819e-21
2.14528e-21
-2.42052e-21
2.29789e-21
-2.30207e-21
2.44134e-21
-2.16466e-21
2.57449e-21
-2.01007e-21
2.69632e-21
-1.84e-21
2.80587e-21
-1.65613e-21
2.90237e-21
-1.46009e-21
2.98509e-21
-1.25352e-21
3.05349e-21
-1.03801e-21
3.10707e-21
-8.1514e-22
3.14552e-21
-5.86493e-22
3.16864e-21
-3.53662e-22
3.17633e-21
-1.183e-22
3.16856e-21
1.17896e-22
3.14536e-21
3.53235e-22
3.10686e-21
5.86011e-22
3.05323e-21
8.14603e-22
2.98479e-21
1.03741e-21
2.90202e-21
1.25285e-21
2.80549e-21
1.45934e-21
2.69591e-21
1.65529e-21
2.57408e-21
1.83909e-21
2.44093e-21
2.00908e-21
2.29749e-21
2.16362e-21
2.14492e-21
2.30098e-21
1.9845e-21
2.4194e-21
1.81764e-21
2.51707e-21
1.64591e-21
2.59207e-21
1.47104e-21
2.6424e-21
1.2949e-21
2.66594e-21
1.11956e-21
2.66039e-21
9.47248e-22
2.62319e-21
7.8054e-22
2.55155e-21
6.22188e-22
2.44246e-21
4.74663e-22
2.2926e-21
3.41302e-22
2.09777e-21
2.26136e-22
1.85338e-21
1.31156e-22
1.55514e-21
5.95243e-23
1.19719e-21
1.5033e-23
7.72209e-22
2.90274e-22
1.24596e-23
-3.0262e-22
4.8437e-23
-8.08318e-22
1.06221e-22
-1.25458e-21
1.83497e-22
-1.63245e-21
2.77741e-22
-1.94799e-21
3.86346e-22
-2.20656e-21
5.06827e-22
-2.4134e-21
6.36628e-22
-2.57288e-21
7.73304e-22
-2.68899e-21
9.14678e-22
-2.7654e-21
1.05868e-21
-2.80539e-21
1.2034e-21
-2.81176e-21
1.34713e-21
-2.78727e-21
1.48833e-21
-2.73443e-21
1.62553e-21
-2.65545e-21
1.75745e-21
-2.55248e-21
1.88291e-21
-2.42755e-21
2.00085e-21
-2.28263e-21
2.11032e-21
-2.11955e-21
2.21045e-21
-1.94015e-21
2.3005e-21
-1.74618e-21
2.37981e-21
-1.53941e-21
2.4478e-21
-1.32151e-21
2.50399e-21
-1.0942e-21
2.54801e-21
-8.59151e-22
2.5796e-21
-6.18065e-22
2.5986e-21
-3.72625e-22
2.60492e-21
-1.24574e-22
2.59852e-21
1.24355e-22
2.57942e-21
3.72395e-22
2.5477e-21
6.17796e-22
2.50356e-21
8.58825e-22
2.44726e-21
1.09379e-21
2.37919e-21
1.32101e-21
2.29981e-21
1.53882e-21
2.20968e-21
1.74551e-21
2.1095e-21
1.93938e-21
2e-21
2.1187e-21
1.88205e-21
2.28169e-21
1.7566e-21
2.42656e-21
1.6247e-21
2.55144e-21
1.48753e-21
2.65438e-21
1.3464e-21
2.73336e-21
1.20274e-21
2.78622e-21
1.05807e-21
2.81078e-21
9.14156e-22
2.80449e-21
7.72923e-22
2.76459e-21
6.36339e-22
2.68835e-21
5.06545e-22
2.57244e-21
3.86193e-22
2.41307e-21
2.77815e-22
2.20634e-21
1.83249e-22
1.9481e-21
1.05941e-22
1.63257e-21
4.85472e-23
1.25437e-21
1.28163e-23
8.08232e-22
3.03093e-22
9.75417e-24
-3.12462e-22
3.7527e-23
-8.36165e-22
8.21649e-23
-1.2993e-21
1.42007e-22
-1.69236e-21
2.15114e-22
-2.02117e-21
2.99564e-22
-2.29108e-21
3.93288e-22
-2.50719e-21
4.94296e-22
-2.67396e-21
6.00755e-22
-2.79552e-21
7.10953e-22
-2.87566e-21
8.23271e-22
-2.91776e-21
9.36178e-22
-2.92471e-21
1.04835e-21
-2.89948e-21
1.15859e-21
-2.84469e-21
1.26573e-21
-2.76261e-21
1.36874e-21
-2.65551e-21
1.46671e-21
-2.52553e-21
1.5588e-21
-2.37473e-21
1.64428e-21
-2.20503e-21
1.72247e-21
-2.01834e-21
1.79278e-21
-1.81649e-21
1.85467e-21
-1.6013e-21
1.90774e-21
-1.37457e-21
1.9516e-21
-1.13805e-21
1.98598e-21
-8.93513e-22
2.01065e-21
-6.4271e-22
2.02548e-21
-3.87413e-22
2.03036e-21
-1.29418e-22
2.0253e-21
1.29463e-22
2.01033e-21
3.87409e-22
1.98553e-21
6.42649e-22
1.95103e-21
8.93385e-22
1.90703e-21
1.13785e-21
1.85383e-21
1.37428e-21
1.79181e-21
1.60091e-21
1.72141e-21
1.81599e-21
1.64315e-21
2.01772e-21
1.55762e-21
2.20432e-21
1.46549e-21
2.37392e-21
1.3675e-21
2.52465e-21
1.26449e-21
2.65455e-21
1.15737e-21
2.7616e-21
1.04717e-21
2.84366e-21
9.3505e-22
2.89846e-21
8.22238e-22
2.92371e-21
7.10028e-22
2.91682e-21
5.9993e-22
2.87485e-21
4.93541e-22
2.79484e-21
3.92747e-22
2.67332e-21
2.99238e-22
2.50676e-21
2.14703e-22
2.29094e-21
1.41775e-22
2.02101e-21
8.21984e-23
1.69219e-21
3.74705e-23
1.29942e-21
9.54809e-24
8.35937e-22
3.1264e-22
6.89536e-24
-3.19323e-22
2.66925e-23
-8.56007e-22
5.85534e-23
-1.33119e-21
1.01276e-22
-1.73511e-21
1.53499e-22
-2.07341e-21
2.1382e-22
-2.35142e-21
2.80779e-22
-2.57417e-21
3.53018e-22
-2.74622e-21
4.2924e-22
-2.87175e-21
5.08116e-22
-2.95455e-21
5.88553e-22
-2.9982e-21
6.69402e-22
-3.00556e-21
7.49792e-22
-2.97987e-21
8.28793e-22
-2.92369e-21
9.05576e-22
-2.83939e-21
9.79391e-22
-2.72932e-21
1.0496e-21
-2.59573e-21
1.11559e-21
-2.4407e-21
1.17683e-21
-2.26626e-21
1.23284e-21
-2.07433e-21
1.28321e-21
-1.86684e-21
1.32756e-21
-1.64563e-21
1.36558e-21
-1.41256e-21
1.397e-21
-1.16944e-21
1.42161e-21
-9.18089e-22
1.43925e-21
-6.60313e-22
1.44984e-21
-3.97972e-22
1.45332e-21
-1.32869e-22
1.44968e-21
1.33141e-22
1.43889e-21
3.98223e-22
1.42105e-21
6.60522e-22
1.39627e-21
9.18208e-22
1.36469e-21
1.16946e-21
1.32654e-21
1.41247e-21
1.28206e-21
1.64544e-21
1.23158e-21
1.86652e-21
1.17545e-21
2.0739e-21
1.11413e-21
2.2657e-21
1.04808e-21
2.44003e-21
9.77834e-22
2.59495e-21
9.03999e-22
2.72845e-21
8.27225e-22
2.83845e-21
7.48251e-22
2.92271e-21
6.67933e-22
2.97885e-21
5.87173e-22
3.00455e-21
5.06823e-22
2.99726e-21
4.28102e-22
2.95362e-21
3.52101e-22
2.87092e-21
2.79928e-22
2.74559e-21
2.13024e-22
2.57363e-21
1.53117e-22
2.35088e-21
1.01195e-22
2.07304e-21
5.83145e-23
1.73503e-21
2.64273e-23
1.331e-21
6.71605e-24
8.55834e-22
3.19353e-22
4.15057e-24
-3.2352e-22
1.60865e-23
-8.67887e-22
3.52919e-23
-1.35036e-21
6.10015e-23
-1.76078e-21
9.24327e-23
-2.1048e-21
1.28712e-22
-2.38766e-21
1.68992e-22
-2.61441e-21
2.12463e-22
-2.78966e-21
2.58403e-22
-2.91766e-21
3.06044e-22
-3.00216e-21
3.54275e-22
-3.0464e-21
4.02887e-22
-3.05415e-21
4.5141e-22
-3.02836e-21
4.99029e-22
-2.97128e-21
5.45196e-22
-2.88553e-21
5.89591e-22
-2.77368e-21
6.31821e-22
-2.63793e-21
6.71524e-22
-2.48038e-21
7.08365e-22
-2.30307e-21
7.42065e-22
-2.10799e-21
7.72355e-22
-1.89709e-21
7.99026e-22
-1.67226e-21
8.21866e-22
-1.43536e-21
8.40741e-22
-1.18826e-21
8.55519e-22
-9.32819e-22
8.66118e-22
-6.70873e-22
8.7245e-22
-4.04276e-22
8.7449e-22
-1.34887e-22
8.72229e-22
1.35417e-22
8.65693e-22
4.04775e-22
8.54916e-22
6.71317e-22
8.39953e-22
9.3319e-22
8.20892e-22
1.18854e-21
7.9787e-22
1.43552e-21
7.71048e-22
1.67229e-21
7.40618e-22
1.89698e-21
7.06803e-22
2.10775e-21
6.69857e-22
2.30268e-21
6.30076e-22
2.47985e-21
5.87794e-22
2.63727e-21
5.4337e-22
2.77291e-21
4.97198e-22
2.88465e-21
4.49615e-22
2.97033e-21
4.01148e-22
3.02736e-21
3.52611e-22
3.05312e-21
3.04539e-22
3.04535e-21
2.5705e-22
3.00116e-21
2.11201e-22
2.91677e-21
1.67992e-22
2.78874e-21
1.2814e-22
2.61355e-21
9.18116e-23
2.38718e-21
6.03032e-23
2.10436e-21
3.51249e-23
1.76018e-21
1.6341e-23
1.34997e-21
4.33167e-24
8.67551e-22
3.23679e-22
1.45386e-24
-3.24898e-22
5.56121e-24
-8.71923e-22
1.21816e-23
-1.35688e-21
2.09884e-23
-1.7695e-21
3.16861e-23
-2.11541e-21
4.40114e-23
-2.39989e-21
5.76546e-23
-2.62797e-21
7.23055e-23
-2.80422e-21
8.76223e-23
-2.9329e-21
1.035e-22
-3.01796e-21
1.20004e-22
-3.06284e-21
1.3713e-22
-3.07121e-21
1.53535e-22
-3.0447e-21
1.69189e-22
-2.98687e-21
1.84554e-22
-2.90084e-21
1.99426e-22
-2.7885e-21
2.13577e-22
-2.65203e-21
2.26878e-22
-2.49363e-21
2.39216e-22
-2.31536e-21
2.505e-22
-2.11923e-21
2.60629e-22
-1.90717e-21
2.69538e-22
-1.68111e-21
2.7717e-22
-1.44293e-21
2.83473e-22
-1.19451e-21
2.88381e-22
-9.37675e-22
2.91873e-22
-6.74327e-22
2.93926e-22
-4.06303e-22
2.94536e-22
-1.35485e-22
2.93696e-22
1.36265e-22
2.91414e-22
4.0706e-22
2.87706e-22
6.7503e-22
2.82596e-22
9.38305e-22
2.76123e-22
1.19502e-21
2.68315e-22
1.44333e-21
2.59246e-22
1.68137e-21
2.48955e-22
1.90728e-21
2.37545e-22
2.11917e-21
2.25089e-22
2.31514e-21
2.11697e-22
2.49325e-21
1.97477e-22
2.65149e-21
1.82573e-22
2.78782e-21
1.67194e-22
2.90003e-21
1.51571e-22
2.98595e-21
1.35223e-22
3.04369e-21
1.18191e-22
3.07015e-21
1.01797e-22
3.06174e-21
8.60688e-23
3.01683e-21
7.1063e-23
2.93175e-21
5.65802e-23
2.80323e-21
4.28431e-23
2.62712e-21
3.10288e-23
2.3989e-21
2.09915e-23
2.11444e-21
1.19164e-23
1.76906e-21
4.99713e-24
1.35651e-21
9.57083e-25
8.71669e-22
3.24627e-22
-1.18179e-24
-3.23726e-22
-4.85497e-24
-8.68063e-22
-1.08423e-23
-1.35074e-21
-1.89545e-23
-1.76123e-21
-2.89219e-23
-2.10528e-21
-4.05139e-23
-2.38815e-21
-5.34631e-23
-2.61487e-21
-6.74478e-23
-2.7901e-21
-8.21618e-23
-2.91806e-21
-9.74888e-23
-3.00251e-21
-1.13483e-22
-3.04673e-21
-1.30142e-22
-3.05444e-21
-1.46128e-22
-3.02862e-21
-1.6141e-22
-2.9715e-21
-1.76453e-22
-2.88571e-21
-1.9104e-22
-2.77383e-21
-2.04957e-22
-2.63804e-21
-2.18061e-22
-2.48045e-21
-2.30249e-22
-2.3031e-21
-2.41423e-22
-2.10799e-21
-2.51477e-22
-1.89705e-21
-2.60338e-22
-1.67218e-21
-2.6795e-22
-1.43525e-21
-2.74272e-22
-1.18812e-21
-2.79251e-22
-9.32645e-22
-2.82866e-22
-6.70674e-22
-2.85091e-22
-4.04055e-22
-2.8591e-22
-1.3465e-22
-2.8532e-22
1.35681e-22
-2.83325e-22
4.05068e-22
-2.79935e-22
6.71638e-22
-2.75164e-22
9.3353e-22
-2.69033e-22
1.18889e-21
-2.61593e-22
1.43589e-21
-2.52896e-22
1.67266e-21
-2.43001e-22
1.89737e-21
-2.31978e-22
2.10813e-21
-2.1991e-22
2.30306e-21
-2.06898e-22
2.48021e-21
-1.93058e-22
2.63763e-21
-1.78512e-22
2.77324e-21
-1.63483e-22
2.88496e-21
-1.48183e-22
2.9706e-21
-1.32139e-22
3.02761e-21
-1.15386e-22
3.05332e-21
-9.92482e-23
3.04552e-21
-8.37401e-23
3.00129e-21
-6.8984e-23
2.91688e-21
-5.47334e-23
2.78879e-21
-4.1146e-23
2.61353e-21
-2.95742e-23
2.38719e-21
-1.99976e-23
2.10452e-21
-1.11387e-23
1.76012e-21
-4.51232e-24
1.3499e-21
-8.82667e-25
8.67671e-22
3.23732e-22
-4.06281e-24
-3.19543e-22
-1.5422e-23
-8.56495e-22
-3.39634e-23
-1.33196e-21
-5.89793e-23
-1.73598e-21
-8.96998e-23
-2.07434e-21
-1.25301e-22
-2.35234e-21
-1.64931e-22
-2.57504e-21
-2.07778e-22
-2.74706e-21
-2.53138e-22
-2.87252e-21
-3.00243e-22
-2.95524e-21
-3.47974e-22
-2.99884e-21
-3.9615e-22
-3.00611e-21
-4.44279e-22
-2.98035e-21
-4.91539e-22
-2.9241e-21
-5.3739e-22
-2.83973e-21
-5.8151e-22
-2.72959e-21
-6.23511e-22
-2.59593e-21
-6.63019e-22
-2.44084e-21
-6.99709e-22
-2.26632e-21
-7.33276e-22
-2.07433e-21
-7.63488e-22
-1.86675e-21
-7.90114e-22
-1.64547e-21
-8.12975e-22
-1.41232e-21
-8.3189e-22
-1.16914e-21
-8.46748e-22
-9.1774e-22
-8.57445e-22
-6.59935e-22
-8.6394e-22
-3.97534e-22
-8.66179e-22
-1.32389e-22
-8.64169e-22
1.33678e-22
-8.57884e-22
3.98786e-22
-8.4739e-22
6.61134e-22
-8.32728e-22
9.18858e-22
-8.14025e-22
1.17016e-21
-7.91358e-22
1.4132e-21
-7.6492e-22
1.64619e-21
-7.34847e-22
1.86727e-21
-7.01419e-22
2.07466e-21
-6.64845e-22
2.26644e-21
-6.25446e-22
2.44076e-21
-5.83514e-22
2.59564e-21
-5.39453e-22
2.7291e-21
-4.93608e-22
2.83904e-21
-4.46346e-22
2.92325e-21
-3.98157e-22
2.97931e-21
-3.49893e-22
3.00495e-21
-3.02074e-22
2.9976e-21
-2.5484e-22
2.95386e-21
-2.09122e-22
2.87102e-21
-1.6611e-22
2.74571e-21
-1.26719e-22
2.57382e-21
-9.05505e-23
2.3508e-21
-5.88849e-23
2.07282e-21
-3.42838e-23
1.73514e-21
-1.62431e-23
1.33139e-21
-4.59684e-24
8.55964e-22
3.19119e-22
-6.58461e-24
-3.12921e-22
-2.59435e-23
-8.36782e-22
-5.72425e-23
-1.30034e-21
-9.93621e-23
-1.69355e-21
-1.50932e-22
-2.02247e-21
-2.10603e-22
-2.29238e-21
-2.76977e-22
-2.5084e-21
-3.4868e-22
-2.67511e-21
-4.24361e-22
-2.7966e-21
-5.02762e-22
-2.87662e-21
-5.82758e-22
-2.91864e-21
-6.63201e-22
-2.92548e-21
-7.43204e-22
-2.90016e-21
-8.21891e-22
-2.84525e-21
-8.98366e-22
-2.76309e-21
-9.71941e-22
-2.65588e-21
-1.04191e-21
-2.52582e-21
-1.10773e-21
-2.37489e-21
-1.16881e-21
-2.20511e-21
-1.22474e-21
-2.0183e-21
-1.27501e-21
-1.81637e-21
-1.31933e-21
-1.60108e-21
-1.3573e-21
-1.37426e-21
-1.38877e-21
-1.13763e-21
-1.41343e-21
-8.93014e-22
-1.43122e-21
-6.42118e-22
-1.44193e-21
-3.8678e-22
-1.4456e-21
-1.28714e-22
-1.44212e-21
1.30218e-22
-1.43161e-21
3.88272e-22
-1.41405e-21
6.43567e-22
-1.38959e-21
8.94375e-22
-1.35831e-21
1.13887e-21
-1.32049e-21
1.37535e-21
-1.27632e-21
1.602e-21
-1.22621e-21
1.8171e-21
-1.17043e-21
2.01883e-21
-1.10947e-21
2.2054e-21
-1.04374e-21
2.37496e-21
-9.73859e-22
2.52565e-21
-9.00337e-22
2.65548e-21
-8.23893e-22
2.76246e-21
-7.452e-22
2.84442e-21
-6.65171e-22
2.89913e-21
-5.8466e-22
2.92427e-21
-5.04522e-22
2.91723e-21
-4.25954e-22
2.87517e-21
-3.50289e-22
2.79515e-21
-2.78356e-22
2.67341e-21
-2.1118e-22
2.50655e-21
-1.51663e-22
2.29105e-21
-1.00725e-22
2.02133e-21
-5.77162e-23
1.69194e-21
-2.55242e-23
1.299e-21
-6.23715e-24
8.36199e-22
3.1286e-22
-9.63527e-24
-3.03107e-22
-3.68198e-23
-8.09201e-22
-8.09473e-23
-1.25581e-21
-1.40239e-22
-1.63387e-21
-2.12849e-22
-1.9495e-21
-2.96732e-22
-2.20815e-21
-3.8993e-22
-2.41488e-21
-4.90475e-22
-2.57426e-21
-5.96509e-22
-2.69029e-21
-7.06282e-22
-2.76659e-21
-8.1822e-22
-2.80646e-21
-9.30758e-22
-2.81271e-21
-1.04262e-21
-2.78809e-21
-1.15255e-21
-2.73512e-21
-1.25943e-21
-2.65603e-21
-1.3622e-21
-2.55293e-21
-1.45997e-21
-2.4279e-21
-1.55188e-21
-2.28282e-21
-1.63722e-21
-2.11965e-21
-1.71528e-21
-1.9401e-21
-1.78552e-21
-1.74604e-21
-1.84739e-21
-1.53911e-21
-1.90045e-21
-1.32113e-21
-1.94434e-21
-1.09368e-21
-1.97875e-21
-8.58564e-22
-2.00349e-21
-6.17332e-22
-2.01842e-21
-3.71829e-22
-2.02349e-21
-1.23621e-22
-2.01862e-21
1.25351e-22
-2.00387e-21
3.73524e-22
-1.97928e-21
6.18956e-22
-1.94503e-21
8.60118e-22
-1.90131e-21
1.09511e-21
-1.84843e-21
1.32244e-21
-1.7867e-21
1.54022e-21
-1.71663e-21
1.74698e-21
-1.63867e-21
1.94078e-21
-1.55346e-21
2.12012e-21
-1.46163e-21
2.28301e-21
-1.36396e-21
2.42786e-21
-1.26123e-21
2.55259e-21
-1.15441e-21
2.65547e-21
-1.04446e-21
2.73429e-21
-9.32595e-22
2.78706e-21
-8.19977e-22
2.81143e-21
-7.08017e-22
2.8051e-21
-5.98135e-22
2.76499e-21
-4.9176e-22
2.68848e-21
-3.91028e-22
2.57258e-21
-2.98341e-22
2.41341e-21
-2.1385e-22
2.20614e-21
-1.39973e-22
1.94736e-21
-8.13333e-23
1.63271e-21
-3.79579e-23
1.25503e-21
-1.04217e-23
8.08448e-22
3.02416e-22
-1.22579e-23
-2.90746e-22
-4.77696e-23
-7.73188e-22
-1.05028e-22
-1.19807e-21
-1.81897e-22
-1.55656e-21
-2.7578e-22
-1.8552e-21
-3.8404e-22
-2.09951e-21
-5.04157e-22
-2.2944e-21
-6.33564e-22
-2.44453e-21
-7.69906e-22
-2.55364e-21
-9.1092e-22
-2.62529e-21
-1.05464e-21
-2.66248e-21
-1.19905e-21
-2.66806e-21
-1.34253e-21
-2.64439e-21
-1.48342e-21
-2.59402e-21
-1.62044e-21
-2.51883e-21
-1.75211e-21
-2.42108e-21
-1.87744e-21
-2.30242e-21
-1.99516e-21
-2.16496e-21
-2.10456e-21
-2.01013e-21
-2.20451e-21
-1.84003e-21
-2.29457e-21
-1.65591e-21
-2.37373e-21
-1.45986e-21
-2.4418e-21
-1.25303e-21
-2.49791e-21
-1.0375e-21
-2.54209e-21
-8.14368e-22
-2.57366e-21
-5.85722e-22
-2.59286e-21
-3.52637e-22
-2.59915e-21
-1.17306e-22
-2.59298e-21
1.19154e-22
-2.57391e-21
3.54463e-22
-2.54251e-21
5.87517e-22
-2.49846e-21
8.16076e-22
-2.44253e-21
1.03912e-21
-2.37458e-21
1.25449e-21
-2.29559e-21
1.46116e-21
-2.20562e-21
1.65697e-21
-2.10583e-21
1.84089e-21
-1.99649e-21
2.01071e-21
-1.87891e-21
2.1653e-21
-1.7536e-21
2.30243e-21
-1.62206e-21
2.42086e-21
-1.48501e-21
2.51828e-21
-1.34418e-21
2.59324e-21
-1.20064e-21
2.64334e-21
-1.05627e-21
2.66684e-21
-9.12397e-22
2.66095e-21
-7.713e-22
2.62367e-21
-6.35015e-22
2.55202e-21
-5.05532e-22
2.4426e-21
-3.84477e-22
2.29213e-21
-2.76356e-22
2.0978e-21
-1.83675e-22
1.85394e-21
-1.05742e-22
1.55452e-21
-4.71783e-23
1.19614e-21
-1.17416e-23
7.72484e-22
2.90651e-22
-1.538e-23
-2.75154e-22
-5.9152e-23
-7.2889e-22
-1.29935e-22
-1.12679e-21
-2.24517e-22
-1.46151e-21
-3.3993e-22
-1.73934e-21
-4.72854e-22
-1.96617e-21
-6.19975e-22
-2.14689e-21
-7.78292e-22
-2.28585e-21
-9.44825e-22
-2.38677e-21
-1.11695e-21
-2.45286e-21
-1.29212e-21
-2.48702e-21
-1.46815e-21
-2.49177e-21
-1.64285e-21
-2.46943e-21
-1.81449e-21
-2.42218e-21
-1.98117e-21
-2.35193e-21
-2.14151e-21
-2.26059e-21
-2.29391e-21
-2.14984e-21
-2.4373e-21
-2.02146e-21
-2.57028e-21
-1.87701e-21
-2.69207e-21
-1.71817e-21
-2.80149e-21
-1.54637e-21
-2.89801e-21
-1.36331e-21
-2.98064e-21
-1.17031e-21
-3.04909e-21
-9.69064e-22
-3.1026e-21
-7.60786e-22
-3.14115e-21
-5.4721e-22
-3.16424e-21
-3.29488e-22
-3.17209e-21
-1.09517e-22
-3.16435e-21
1.11452e-22
-3.14135e-21
3.31394e-22
-3.1029e-21
5.49096e-22
-3.04949e-21
7.62576e-22
-2.98115e-21
9.70793e-22
-2.89862e-21
1.17183e-21
-2.80221e-21
1.36473e-21
-2.6929e-21
1.54751e-21
-2.57123e-21
1.71916e-21
-2.43833e-21
1.87763e-21
-2.29504e-21
2.02191e-21
-2.1427e-21
2.1499e-21
-1.98242e-21
2.26046e-21
-1.81578e-21
2.35142e-21
-1.6442e-21
2.42151e-21
-1.46949e-21
2.4684e-21
-1.29342e-21
2.49056e-21
-1.11825e-21
2.48555e-21
-9.46146e-22
2.45133e-21
-7.7927e-22
2.38475e-21
-6.20824e-22
2.284e-21
-4.74391e-22
2.14529e-21
-3.41263e-22
1.96406e-21
-2.24096e-22
1.73669e-21
-1.30254e-22
1.46008e-21
-6.06873e-23
1.12597e-21
-1.65696e-23
7.28174e-22
2.74062e-22
-1.84795e-23
-2.56541e-22
-7.09662e-23
-6.75851e-22
-1.55588e-22
-1.04166e-21
-2.68492e-22
-1.34812e-21
-4.05822e-22
-1.60155e-21
-5.6355e-22
-1.808e-21
-7.37773e-22
-1.97224e-21
-9.24943e-22
-2.09827e-21
-1.12152e-21
-2.18981e-21
-1.32448e-21
-2.24953e-21
-1.53082e-21
-2.28034e-21
-1.73807e-21
-2.2842e-21
-1.94359e-21
-2.26364e-21
-2.14549e-21
-2.22002e-21
-2.34145e-21
-2.15575e-21
-2.53004e-21
-2.0718e-21
-2.70913e-21
-1.97058e-21
-2.87776e-21
-1.85268e-21
-3.034e-21
-1.72065e-21
-3.17729e-21
-1.57476e-21
-3.30583e-21
-1.41776e-21
-3.41944e-21
-1.24962e-21
-3.51645e-21
-1.07326e-21
-3.59707e-21
-8.88392e-22
-3.65978e-21
-6.98064e-22
-3.70522e-21
-5.01746e-22
-3.73211e-21
-3.02607e-22
-3.74147e-21
-1.00146e-22
-3.73212e-21
1.02069e-22
-3.70529e-21
3.04537e-22
-3.65985e-21
5.03567e-22
-3.59725e-21
6.99891e-22
-3.51663e-21
8.90007e-22
-3.4198e-21
1.07486e-21
-3.30617e-21
1.2509e-21
-3.17785e-21
1.41901e-21
-3.03449e-21
1.57558e-21
-2.87848e-21
1.72144e-21
-2.70976e-21
1.85299e-21
-2.5309e-21
1.97086e-21
-2.34219e-21
2.07156e-21
-2.14646e-21
2.15552e-21
-1.94439e-21
2.21925e-21
-1.73907e-21
2.26288e-21
-1.53171e-21
2.283e-21
-1.32552e-21
2.27912e-21
-1.12228e-21
2.24782e-21
-9.26075e-22
2.18836e-21
-7.38891e-22
2.0964e-21
-5.63902e-22
1.96992e-21
-4.0606e-22
1.80608e-21
-2.70309e-22
1.60031e-21
-1.56649e-22
1.34617e-21
-7.03043e-23
1.03945e-21
-1.73741e-23
6.74816e-22
2.56675e-22
-2.14787e-23
-2.34844e-22
-8.33951e-23
-6.13423e-22
-1.82327e-22
-9.42199e-22
-3.14087e-22
-1.21584e-21
-4.7363e-22
-1.4415e-21
-6.5644e-22
-1.62468e-21
-8.57923e-22
-1.77026e-21
-1.07373e-21
-1.88198e-21
-1.3002e-21
-1.96287e-21
-1.53356e-21
-2.01574e-21
-1.77077e-21
-2.04273e-21
-2.00858e-21
-2.046e-21
-2.24466e-21
-2.02722e-21
-2.47612e-21
-1.98825e-21
-2.70114e-21
-1.93047e-21
-2.91713e-21
-1.85554e-21
-3.12286e-21
-1.76465e-21
-3.31591e-21
-1.65942e-21
-3.49552e-21