/*--------------------------------*- C++ -*----------------------------------*\
| =========                 |                                                 |
| \\      /  F ield         | OpenFOAM: The Open Source CFD Toolbox           |
|  \\    /   O peration     | Version:  5.0                                   |
|   \\  /    A nd           | Web:      www.OpenFOAM.org                      |
|    \\/     M anipulation  |                                                 |
\*---------------------------------------------------------------------------*/
FoamFile
{
    version     2.0;
    format      ascii;
    class       volScalarField;
    location    "4.1";
    object      p;
}
// * * * * * * * * * * * * * * * * * * * * * * * * * * * * * * * * * * * * * //

dimensions      [0 2 -2 0 0 0 0];

internalField   nonuniform List<scalar> 
50
(
18.9727
17.0204
15.0387
13.0617
11.0864
9.11531
7.14003
5.07164
3.05356
1.02204
19.0398
17.0224
15.0386
13.0598
11.0521
9.11444
7.10643
5.06778
3.05052
0.983084
19.0909
17.0242
15.0386
13.0584
11.0262
9.12015
7.08761
5.06536
3.04771
0.953586
19.0219
17.0224
15.0386
13.059
11.0607
9.09055
7.09125
5.06611
3.04906
1.01823
18.8038
17.016
15.0389
13.0621
11.1698
8.9952
7.10191
5.06925
3.05612
1.22916
)
;

boundaryField
{
    top
    {
        type            zeroGradient;
    }
    bottom
    {
        type            symmetryPlane;
    }
    inlet
    {
        type            fixedValue;
        value           uniform 20;
    }
    outlet
    {
        type            fixedValue;
        value           uniform 0;
    }
    frontAndBack
    {
        type            empty;
    }
}


// ************************************************************************* //
