/*--------------------------------*- C++ -*----------------------------------*\
| =========                 |                                                 |
| \\      /  F ield         | OpenFOAM: The Open Source CFD Toolbox           |
|  \\    /   O peration     | Version:  5.0                                   |
|   \\  /    A nd           | Web:      www.OpenFOAM.org                      |
|    \\/     M anipulation  |                                                 |
\*---------------------------------------------------------------------------*/
FoamFile
{
    version     2.0;
    format      ascii;
    class       surfaceScalarField;
    location    "4.1";
    object      phi;
}
// * * * * * * * * * * * * * * * * * * * * * * * * * * * * * * * * * * * * * //

dimensions      [0 3 -1 0 0 0 0];

internalField   nonuniform List<scalar> 
85
(
0.000196879
5.49797e-07
0.000197002
-1.23461e-07
0.000196982
1.9502e-08
0.000196711
2.71298e-07
0.000196641
7.02484e-08
0.000192356
4.28482e-06
0.00018793
4.42602e-06
0.000187254
6.76466e-07
0.000186887
3.66928e-07
3.0088e-07
0.000157826
-1.95954e-07
0.000157692
1.02397e-08
0.00015768
3.18508e-08
0.000157779
1.72587e-07
0.000157431
4.17702e-07
0.000158711
3.00495e-06
0.000159521
3.61609e-06
0.00015956
6.37887e-07
0.000159656
2.70213e-07
9.80137e-07
0.000118599
-1.21248e-06
0.00011835
2.59254e-07
0.00011835
3.14922e-08
0.000118556
-3.34405e-08
0.000118222
7.5226e-07
0.000120553
6.73588e-07
0.000122444
1.72494e-06
0.000122798
2.83713e-07
0.000123167
-9.85077e-08
1.61504e-06
7.90632e-05
-1.2839e-06
7.89633e-05
3.59207e-07
7.89822e-05
1.25505e-08
7.90884e-05
-1.39647e-07
7.9165e-05
6.75653e-07
8.0192e-05
-3.53393e-07
8.13263e-05
5.90681e-07
8.15673e-05
4.26998e-08
8.18053e-05
-3.36565e-07
1.40449e-06
3.92674e-05
3.96266e-05
3.96391e-05
3.94995e-05
4.01751e-05
3.98218e-05
4.04124e-05
4.04551e-05
4.01186e-05
)
;

boundaryField
{
    top
    {
        type            calculated;
        value           uniform 0;
    }
    bottom
    {
        type            symmetryPlane;
        value           uniform 0;
    }
    inlet
    {
        type            calculated;
        value           nonuniform List<scalar> 5(-0.000197428 -0.00015708 -0.000117582 -7.89918e-05 -4.05513e-05);
    }
    outlet
    {
        type            calculated;
        value           nonuniform List<scalar> 5(0.000186586 0.000158977 0.000122532 8.20159e-05 4.15231e-05);
    }
    frontAndBack
    {
        type            empty;
        value           nonuniform 0();
    }
}


// ************************************************************************* //
