/*--------------------------------*- C++ -*----------------------------------*\
| =========                 |                                                 |
| \\      /  F ield         | OpenFOAM: The Open Source CFD Toolbox           |
|  \\    /   O peration     | Version:  5.0                                   |
|   \\  /    A nd           | Web:      www.OpenFOAM.org                      |
|    \\/     M anipulation  |                                                 |
\*---------------------------------------------------------------------------*/
FoamFile
{
    version     2.0;
    format      ascii;
    class       surfaceScalarField;
    location    "186";
    object      phi;
}
// * * * * * * * * * * * * * * * * * * * * * * * * * * * * * * * * * * * * * //

dimensions      [0 3 -1 0 0 0 0];

internalField   nonuniform List<scalar> 
3052
(
-1.38694e-21
-6.33428e-21
4.49061e-21
-7.06651e-21
2.73913e-20
-2.37996e-20
4.76565e-20
-2.14586e-20
6.7843e-20
-2.09721e-20
9.49719e-20
-2.78709e-20
1.23591e-19
-2.9183e-20
1.52726e-19
-2.96761e-20
1.83391e-19
-3.13237e-20
2.15001e-19
-3.22372e-20
2.46689e-19
-3.22725e-20
2.78248e-19
-3.21216e-20
3.0943e-19
-3.17232e-20
3.39842e-19
-3.09255e-20
3.69155e-19
-2.98591e-20
3.97161e-19
-2.8539e-20
4.23538e-19
-2.69143e-20
4.4816e-19
-2.51242e-20
4.70741e-19
-2.30878e-20
4.91195e-19
-2.09122e-20
5.09278e-19
-1.85203e-20
5.25029e-19
-1.61069e-20
5.38114e-19
-1.3404e-20
5.48619e-19
-1.07201e-20
5.56432e-19
-8.00837e-21
5.61704e-19
-5.39549e-21
5.64054e-19
-2.46086e-21
5.63695e-19
3.32366e-22
5.60261e-19
3.40174e-21
5.5423e-19
6.05942e-21
5.45561e-19
8.76332e-21
5.34627e-19
1.12134e-20
5.21083e-19
1.39408e-20
5.05429e-19
1.61767e-20
4.87463e-19
1.85218e-20
4.67636e-19
2.04549e-20
4.45714e-19
2.25264e-20
4.2223e-19
2.41317e-20
3.97081e-19
2.57801e-20
3.70627e-19
2.7068e-20
3.42919e-19
2.82205e-20
3.14457e-19
2.89569e-20
2.85236e-19
2.96635e-20
2.55721e-19
2.99773e-20
2.26074e-19
3.01067e-20
1.96746e-19
2.98233e-20
1.67933e-19
2.93272e-20
1.40035e-19
2.84156e-20
1.13355e-19
2.71991e-20
8.83934e-20
2.54972e-20
6.52434e-20
2.3499e-20
4.48552e-20
2.08434e-20
2.7941e-20
1.76398e-20
1.27987e-20
1.51946e-20
3.96821e-21
9.04089e-21
3.98002e-21
6.6248e-21
-1.40192e-20
1.63656e-20
-1.80717e-20
2.22851e-20
-3.41845e-20
3.90363e-20
-4.02638e-20
6.37277e-20
-4.80461e-20
8.70826e-20
-5.28358e-20
1.12584e-19
-5.60664e-20
1.40548e-19
-5.92617e-20
1.69172e-19
-6.14932e-20
1.98145e-19
-6.27713e-20
2.27623e-19
-6.32245e-20
2.57126e-19
-6.29896e-20
2.8616e-19
-6.20635e-20
3.14398e-19
-6.05774e-20
3.41697e-19
-5.85037e-20
3.677e-19
-5.59179e-20
3.92303e-19
-5.28035e-20
4.15183e-19
-4.92972e-20
4.36271e-19
-4.53172e-20
4.55282e-19
-4.10343e-20
4.72221e-19
-3.6365e-20
4.86778e-19
-3.15084e-20
4.99134e-19
-2.63298e-20
5.09051e-19
-2.11718e-20
5.16615e-19
-1.58947e-20
5.21478e-19
-1.0564e-20
5.23816e-19
-4.9026e-21
5.23333e-19
6.89438e-22
5.2037e-19
6.42263e-21
5.14715e-19
1.18928e-20
5.06768e-19
1.72873e-20
4.96505e-19
2.23077e-20
4.84271e-19
2.73862e-20
4.69746e-19
3.20415e-20
4.53253e-19
3.65583e-20
4.3466e-19
4.05405e-20
4.14467e-19
4.43577e-20
3.92524e-19
4.76454e-20
3.69226e-19
5.0638e-20
3.44571e-19
5.30771e-20
3.189e-19
5.52173e-20
2.92182e-19
5.67881e-20
2.6498e-19
5.80206e-20
2.37402e-19
5.8678e-20
2.09822e-19
5.89009e-20
1.82407e-19
5.84856e-20
1.55542e-19
5.74778e-20
1.29531e-19
5.57509e-20
1.04749e-19
5.33484e-20
8.12659e-20
4.99769e-20
5.99999e-20
4.62687e-20
4.09234e-20
4.12843e-20
2.42239e-20
3.45792e-20
1.30237e-20
2.78347e-20
3.77416e-21
1.81267e-20
7.74533e-21
-1.59975e-21
-1.24097e-20
8.51351e-21
-3.15205e-20
2.06944e-20
-4.74552e-20
3.76514e-20
-5.88262e-20
5.64629e-20
-6.75273e-20
7.84305e-20
-7.52752e-20
1.02443e-19
-8.05447e-20
1.27923e-19
-8.5091e-20
1.54333e-19
-8.83314e-20
1.81371e-19
-9.01136e-20
2.08668e-19
-9.07589e-20
2.35822e-19
-9.04345e-20
2.62616e-19
-8.92377e-20
2.88809e-19
-8.70807e-20
3.1405e-19
-8.40949e-20
3.38163e-19
-8.03231e-20
3.60945e-19
-7.58681e-20
3.82188e-19
-7.07187e-20
4.01712e-19
-6.50342e-20
4.19404e-19
-5.88241e-20
4.35114e-19
-5.2202e-20
4.48753e-19
-4.51631e-20
4.60226e-19
-3.78852e-20
4.69459e-19
-3.03928e-20
4.7633e-19
-2.28038e-20
4.80816e-19
-1.4998e-20
4.82937e-19
-7.03886e-21
4.82673e-19
1.04777e-21
4.80064e-19
9.08456e-21
4.7517e-19
1.6949e-20
4.68057e-19
2.45622e-20
4.58713e-19
3.19504e-20
4.47276e-19
3.90657e-20
4.33824e-19
4.57978e-20
4.18516e-19
5.2106e-20
4.01414e-19
5.79935e-20
3.82665e-19
6.33835e-20
3.62395e-19
6.82359e-20
3.40778e-19
7.25198e-20
3.17936e-19
7.62121e-20
2.9409e-19
7.92239e-20
2.69474e-19
8.16402e-20
2.44287e-19
8.3406e-20
2.18728e-19
8.44765e-20
1.93109e-19
8.47367e-20
1.6769e-19
8.41825e-20
1.42759e-19
8.27309e-20
1.18578e-19
8.02541e-20
9.55278e-20
7.67789e-20
7.40254e-20
7.23342e-20
5.40804e-20
6.61306e-20
3.65939e-20
5.88621e-20
2.22541e-20
5.05203e-20
9.94933e-21
3.9173e-20
2.38878e-21
2.60251e-20
1.01494e-20
7.10558e-22
-1.36459e-20
9.33006e-21
-4.07403e-20
1.875e-20
-5.70909e-20
3.30913e-20
-7.31009e-20
5.11317e-20
-8.535e-20
7.06707e-20
-9.43917e-20
9.24561e-20
-1.01929e-19
1.15764e-19
-1.07969e-19
1.39952e-19
-1.11881e-19
1.64675e-19
-1.14175e-19
1.89702e-19
-1.15261e-19
2.14682e-19
-1.14969e-19
2.3928e-19
-1.13371e-19
2.63287e-19
-1.10634e-19
2.86489e-19
-1.06825e-19
3.08684e-19
-1.02016e-19
3.29651e-19
-9.62949e-20
3.49228e-19
-8.9766e-20
3.67259e-19
-8.25212e-20
3.83587e-19
-7.46481e-20
3.98099e-19
-6.6224e-20
4.10669e-19
-5.73568e-20
4.2124e-19
-4.81312e-20
4.29712e-19
-3.86244e-20
4.36034e-19
-2.89034e-20
4.40167e-19
-1.89743e-20
4.42187e-19
-8.88697e-21
4.42068e-19
1.25268e-21
4.39897e-19
1.13246e-20
4.35576e-19
2.12419e-20
4.29145e-19
3.08589e-20
4.20583e-19
4.01319e-20
4.10102e-19
4.9035e-20
3.97703e-19
5.75546e-20
3.83586e-19
6.5591e-20
3.67786e-19
7.31109e-20
3.5051e-19
8.00053e-20
3.31814e-19
8.62678e-20
3.11903e-19
9.18023e-20
2.90914e-19
9.65928e-20
2.69038e-19
1.00612e-19
2.46409e-19
1.0382e-19
2.23264e-19
1.0612e-19
1.99791e-19
1.07494e-19
1.76232e-19
1.07872e-19
1.52815e-19
1.07179e-19
1.29822e-19
1.05294e-19
1.0763e-19
1.02246e-19
8.65489e-20
9.78331e-20
6.66208e-20
9.1691e-20
4.86079e-20
8.43652e-20
3.26145e-20
7.53607e-20
1.86693e-20
6.30121e-20
9.43829e-21
4.95287e-20
2.90296e-21
3.23477e-20
1.30448e-20
3.66925e-21
-1.75073e-20
7.40489e-21
-4.36648e-20
1.76702e-20
-6.68166e-20
3.01888e-20
-8.49783e-20
4.56474e-20
-1.002e-19
6.32366e-20
-1.11733e-19
8.28285e-20
-1.21215e-19
1.03776e-19
-1.28378e-19
1.25662e-19
-1.33152e-19
1.48171e-19
-1.36169e-19
1.70861e-19
-1.37505e-19
1.9349e-19
-1.37168e-19
2.1586e-19
-1.35302e-19
2.37719e-19
-1.32053e-19
2.58855e-19
-1.27489e-19
2.7908e-19
-1.21756e-19
2.9819e-19
-1.14926e-19
3.16033e-19
-1.07151e-19
3.32466e-19
-9.8513e-20
3.47378e-19
-8.91391e-20
3.60626e-19
-7.91155e-20
3.72123e-19
-6.85588e-20
3.81761e-19
-5.75359e-20
3.89496e-19
-4.61764e-20
3.95257e-19
-3.45204e-20
3.9908e-19
-2.26595e-20
4.00948e-19
-1.06552e-20
4.00921e-19
1.37148e-21
3.98986e-19
1.3317e-20
3.95161e-19
2.5036e-20
3.89381e-19
3.64342e-20
3.81684e-19
4.74702e-20
3.72113e-19
5.80911e-20
3.60856e-19
6.82378e-20
3.47988e-19
7.78347e-20
3.33645e-19
8.68214e-20
3.17888e-19
9.51166e-20
3.00885e-19
1.02652e-19
2.82723e-19
1.09389e-19
2.63595e-19
1.15242e-19
2.43667e-19
1.20152e-19
2.23116e-19
1.24041e-19
2.02044e-19
1.26886e-19
1.80674e-19
1.28578e-19
1.59198e-19
1.29053e-19
1.37872e-19
1.28231e-19
1.16975e-19
1.26037e-19
9.67782e-20
1.22258e-19
7.75489e-20
1.1689e-19
5.97271e-20
1.09976e-19
4.32693e-20
1.00598e-19
2.88613e-20
8.89713e-20
1.72834e-20
7.5947e-20
7.23852e-21
5.86613e-20
1.32891e-21
3.85119e-20
1.43952e-20
1.52726e-21
-1.86625e-20
7.04966e-21
-4.82215e-20
1.55853e-20
-7.44179e-20
2.71248e-20
-9.59197e-20
4.0528e-20
-1.13552e-19
5.61464e-20
-1.27381e-19
7.35057e-20
-1.38476e-19
9.20834e-20
-1.46757e-19
1.11574e-19
-1.52479e-19
1.31668e-19
-1.5613e-19
1.51998e-19
-1.57722e-19
1.72333e-19
-1.57384e-19
1.92443e-19
-1.5528e-19
2.12104e-19
-1.51552e-19
2.31137e-19
-1.46343e-19
2.49328e-19
-1.39778e-19
2.66524e-19
-1.31978e-19
2.82572e-19
-1.23074e-19
2.97365e-19
-1.13186e-19
3.10762e-19
-1.02437e-19
3.22688e-19
-9.09467e-20
3.33031e-19
-7.8823e-20
3.41733e-19
-6.61764e-20
3.48708e-19
-5.31156e-20
3.53948e-19
-3.97241e-20
3.57416e-19
-2.6101e-20
3.59151e-19
-1.23447e-20
3.59149e-19
1.43427e-21
3.57433e-19
1.50948e-20
3.53981e-19
2.85146e-20
3.48802e-19
4.15887e-20
3.41911e-19
5.4242e-20
3.33404e-19
6.64313e-20
3.23344e-19
7.80817e-20
3.11822e-19
8.9117e-20
2.9893e-19
9.94514e-20
2.84786e-19
1.09021e-19
2.6948e-19
1.17732e-19
2.53166e-19
1.25522e-19
2.35973e-19
1.32317e-19
2.18051e-19
1.38031e-19
1.99519e-19
1.42584e-19
1.80559e-19
1.45896e-19
1.61324e-19
1.47869e-19
1.42027e-19
1.48431e-19
1.22888e-19
1.47479e-19
1.04137e-19
1.4487e-19
8.6037e-20
1.40573e-19
6.89293e-20
1.34417e-19
5.29193e-20
1.25895e-19
3.84416e-20
1.1538e-19
2.56657e-20
1.02636e-19
1.45276e-20
8.59609e-20
7.21381e-21
6.66815e-20
2.29994e-21
4.34945e-20
1.66963e-20
1.13277e-21
-1.95134e-20
6.5347e-21
-5.29507e-20
1.39769e-20
-8.14078e-20
2.37391e-20
-1.05591e-19
3.53839e-20
-1.25263e-19
4.90111e-20
-1.41083e-19
6.41754e-20
-1.53654e-19
8.04746e-20
-1.63088e-19
9.76485e-20
-1.69705e-19
1.15338e-19
-1.73873e-19
1.33274e-19
-1.75712e-19
1.51241e-19
-1.75388e-19
1.69028e-19
-1.73079e-19
1.86447e-19
-1.68959e-19
2.03305e-19
-1.63184e-19
2.19427e-19
-1.55887e-19
2.34666e-19
-1.47219e-19
2.48899e-19
-1.37313e-19
2.62003e-19
-1.26313e-19
2.7389e-19
-1.14337e-19
2.84466e-19
-1.01528e-19
2.93652e-19
-8.80099e-20
3.01376e-19
-7.39101e-20
3.07586e-19
-5.93296e-20
3.12245e-19
-4.43981e-20
3.15352e-19
-2.9209e-20
3.16913e-19
-1.38957e-20
3.16949e-19
1.42687e-21
3.15454e-19
1.66284e-20
3.1243e-19
3.1588e-20
3.07867e-19
4.61799e-20
3.01808e-19
6.03293e-20
2.94293e-19
7.39518e-20
2.85394e-19
8.69651e-20
2.75186e-19
9.92886e-20
2.63771e-19
1.10843e-19
2.51234e-19
1.21533e-19
2.37677e-19
1.31279e-19
2.23215e-19
1.39992e-19
2.07979e-19
1.47598e-19
1.9209e-19
1.53999e-19
1.75683e-19
1.59107e-19
1.5889e-19
1.62812e-19
1.41867e-19
1.65026e-19
1.24793e-19
1.65645e-19
1.07866e-19
1.64562e-19
9.13113e-20
1.61663e-19
7.53732e-20
1.5676e-19
6.02445e-20
1.4969e-19
4.62376e-20
1.40478e-19
3.34953e-20
1.28438e-19
2.23008e-20
1.13259e-19
1.32726e-20
9.57058e-20
5.6038e-21
7.38662e-20
1.23844e-21
4.78709e-20
1.79358e-20
1.64665e-21
-2.10521e-20
5.51761e-21
-5.6782e-20
1.18143e-20
-8.76818e-20
2.00612e-20
-1.13845e-19
3.01694e-20
-1.35428e-19
4.19758e-20
-1.52929e-19
5.50105e-20
-1.66759e-19
6.90247e-20
-1.77218e-19
8.3845e-20
-1.84618e-19
9.91312e-20
-1.89249e-19
1.1466e-19
-1.91318e-19
1.30221e-19
-1.91017e-19
1.45647e-19
-1.88548e-19
1.60758e-19
-1.84095e-19
1.75383e-19
-1.77828e-19
1.89382e-19
-1.69902e-19
2.0263e-19
-1.60479e-19
2.15003e-19
-1.49709e-19
2.26405e-19
-1.37734e-19
2.36748e-19
-1.24695e-19
2.45951e-19
-1.10746e-19
2.53947e-19
-9.60138e-20
2.60672e-19
-8.06386e-20
2.6608e-19
-6.4752e-20
2.70148e-19
-4.84832e-20
2.7287e-19
-3.19524e-20
2.74251e-19
-1.52841e-20
2.74289e-19
1.39027e-21
2.73003e-19
1.79445e-20
2.70382e-19
3.42462e-20
2.6644e-19
5.01801e-20
2.6119e-19
6.56321e-20
2.54677e-19
8.05112e-20
2.46959e-19
9.47212e-20
2.38112e-19
1.0818e-19
2.28207e-19
1.20786e-19
2.1733e-19
1.32449e-19
2.05564e-19
1.43082e-19
1.93007e-19
1.52592e-19
1.79769e-19
1.60887e-19
1.65967e-19
1.67868e-19
1.51712e-19
1.73429e-19
1.37123e-19
1.77469e-19
1.22338e-19
1.79879e-19
1.07515e-19
1.80546e-19
9.2847e-20
1.7934e-19
7.85347e-20
1.7611e-19
6.47596e-20
1.70734e-19
5.17454e-20
1.63035e-19
3.97076e-20
1.5259e-19
2.88365e-20
1.39414e-19
1.92033e-20
1.23387e-19
1.08559e-20
1.03255e-19
5.2085e-21
7.94945e-20
1.50337e-21
5.15094e-20
1.94343e-20
1.35941e-21
-2.24843e-20
4.49173e-21
-5.99314e-20
9.74737e-21
-9.29254e-20
1.67018e-20
-1.20806e-19
2.5262e-20
-1.43997e-19
3.51137e-20
-1.62841e-19
4.60018e-20
-1.77753e-19
5.77761e-20
-1.89067e-19
7.02006e-20
-1.97116e-19
8.30472e-20
-2.02162e-19
9.61343e-20
-2.04461e-19
1.09282e-19
-2.042e-19
1.22319e-19
-2.01608e-19
1.35084e-19
-1.96882e-19
1.47452e-19
-1.90207e-19
1.593e-19
-1.81754e-19
1.7051e-19
-1.71694e-19
1.80986e-19
-1.60186e-19
1.90641e-19
-1.47391e-19
1.99402e-19
-1.33462e-19
2.07199e-19
-1.18544e-19
2.13973e-19
-1.02792e-19
2.19671e-19
-8.63525e-20
2.2426e-19
-6.93685e-20
2.27712e-19
-5.19702e-20
2.30027e-19
-3.42944e-20
2.31204e-19
-1.64724e-20
2.31252e-19
1.36183e-21
2.30164e-19
1.90644e-20
2.27948e-19
3.65083e-20
2.24614e-19
5.35575e-20
2.20181e-19
7.01055e-20
2.14679e-19
8.60426e-20
2.08164e-19
1.01268e-19
2.00692e-19
1.15678e-19
1.92323e-19
1.29181e-19
1.83121e-19
1.41673e-19
1.7317e-19
1.53057e-19
1.6255e-19
1.63239e-19
1.51353e-19
1.72117e-19
1.3967e-19
1.79582e-19
1.27604e-19
1.85529e-19
1.1526e-19
1.89848e-19
1.0276e-19
1.92415e-19
9.02432e-20
1.93105e-19
7.7871e-20
1.91787e-19
6.58219e-20
1.88309e-19
5.42678e-20
1.82477e-19
4.33329e-20
1.74066e-19
3.32482e-20
1.6297e-19
2.41624e-20
1.48796e-19
1.6097e-20
1.31014e-19
9.466e-21
1.09904e-19
4.10389e-21
8.46227e-20
8.65022e-22
5.45656e-20
2.0294e-20
8.64296e-22
-2.33278e-20
3.5665e-21
-6.2604e-20
7.8617e-21
-9.71718e-20
1.35491e-20
-1.26462e-19
2.04195e-20
-1.50895e-19
2.83033e-20
-1.70795e-19
3.70969e-20
-1.86603e-19
4.66277e-20
-1.9865e-19
5.66951e-20
-2.0723e-19
6.71327e-20
-2.1263e-19
7.77672e-20
-2.15115e-19
8.84632e-20
-2.14902e-19
9.90738e-20
-2.12225e-19
1.09479e-19
-2.07286e-19
1.19558e-19
-2.00286e-19
1.29218e-19
-1.91409e-19
1.38361e-19
-1.80829e-19
1.46914e-19
-1.68729e-19
1.54796e-19
-1.55265e-19
1.61949e-19
-1.40607e-19
1.68316e-19
-1.24908e-19
1.7385e-19
-1.0834e-19
1.78504e-19
-9.1033e-20
1.82246e-19
-7.31512e-20
1.85063e-19
-5.48289e-20
1.86955e-19
-3.62157e-20
1.87926e-19
-1.74435e-20
1.87979e-19
1.33676e-21
1.87106e-19
1.99837e-20
1.85306e-19
3.83527e-20
1.82582e-19
5.63138e-20
1.78955e-19
7.37444e-20
1.74469e-19
9.05378e-20
1.69154e-19
1.06585e-19
1.63054e-19
1.2178e-19
1.56218e-19
1.36013e-19
1.4871e-19
1.49182e-19
1.40589e-19
1.61185e-19
1.31926e-19
1.71916e-19
1.22788e-19
1.81266e-19
1.13258e-19
1.8913e-19
1.03419e-19
1.9539e-19
9.33601e-20
1.9993e-19
8.31798e-20
2.02625e-19
7.29978e-20
2.03335e-19
6.29541e-20
2.01911e-19
5.31973e-20
1.98188e-19
4.3836e-20
1.91985e-19
3.50208e-20
1.83129e-19
2.68929e-20
1.71253e-19
1.9569e-20
1.56103e-19
1.31059e-20
1.37708e-19
7.51946e-21
1.15196e-19
3.40613e-21
8.82975e-20
9.75659e-22
5.70457e-20
2.12693e-20
6.86809e-22
-2.40123e-20
2.7718e-21
-6.46103e-20
6.02964e-21
-1.00368e-19
1.03424e-20
-1.30749e-19
1.55467e-20
-1.56133e-19
2.1582e-20
-1.76874e-19
2.83261e-20
-1.93386e-19
3.56272e-20
-2.05983e-19
4.33464e-20
-2.14969e-19
5.13534e-20
-2.20654e-19
5.95366e-20
-2.23298e-19
6.77721e-20
-2.23134e-19
7.59361e-20
-2.20384e-19
8.39509e-20
-2.15296e-19
9.1727e-20
-2.08052e-19
9.91777e-20
-1.9885e-19
1.06234e-19
-1.87875e-19
1.12832e-19
-1.75317e-19
1.1892e-19
-1.61342e-19
1.24446e-19
-1.46124e-19
1.29366e-19
-1.29829e-19
1.33635e-19
-1.12619e-19
1.37227e-19
-9.466e-20
1.40124e-19
-7.60943e-20
1.42313e-19
-5.70667e-20
1.43788e-19
-3.77144e-20
1.4455e-19
-1.81898e-20
1.44586e-19
1.34174e-21
1.43896e-19
2.07147e-20
1.42494e-19
3.97863e-20
1.40383e-19
5.84387e-20
1.37583e-19
7.65529e-20
1.34112e-19
9.40117e-20
1.3e-19
1.10696e-19
1.2528e-19
1.26491e-19
1.19998e-19
1.41289e-19
1.14198e-19
1.54981e-19
1.07928e-19
1.6746e-19
1.01236e-19
1.78612e-19
9.4183e-20
1.88329e-19
8.68292e-20
1.96496e-19
7.92403e-20
2.02993e-19
7.14886e-20
2.077e-19
6.36525e-20
2.10489e-19
5.58267e-20
2.11198e-19
4.81167e-20
2.09683e-19
4.06422e-20
2.05787e-19
3.35161e-20
1.99304e-19
2.67769e-20
1.89943e-19
2.05876e-20
1.77572e-19
1.50874e-20
1.6199e-19
1.00743e-20
1.4248e-19
5.80903e-21
1.19022e-19
2.70844e-21
9.15555e-20
6.52835e-22
5.87942e-20
2.19082e-20
4.93299e-22
-2.44729e-20
1.91832e-21
-6.60071e-20
4.18943e-21
-1.02579e-19
7.17998e-21
-1.33718e-19
1.08e-20
-1.59759e-19
1.49965e-20
-1.81093e-19
1.96788e-20
-1.98094e-19
2.47554e-20
-2.11078e-19
3.01412e-20
-2.20368e-19
3.57323e-20
-2.26243e-19
4.14419e-20
-2.29003e-19
4.71961e-20
-2.28886e-19
5.29165e-20
-2.26096e-19
5.85352e-20
-2.20904e-19
6.39906e-20
-2.13494e-19
6.92182e-20
-2.04068e-19
7.41728e-20
-1.92825e-19
7.88037e-20
-1.79943e-19
8.30797e-20
-1.6561e-19
8.69582e-20
-1.49995e-19
9.04136e-20
-1.33285e-19
9.3412e-20
-1.15635e-19
9.59444e-20
-9.7212e-20
9.79856e-20
-7.81542e-20
9.95347e-20
-5.86129e-20
1.00577e-19
-3.87345e-20
1.01111e-19
-1.86967e-20
1.01126e-19
1.33957e-21
1.0063e-19
2.12161e-20
9.96218e-20
4.07921e-20
9.81206e-20
5.99411e-20
9.61386e-20
7.85384e-20
9.36888e-20
9.64597e-20
9.07911e-20
1.13589e-19
8.7466e-20
1.29812e-19
8.37481e-20
1.45005e-19
7.96649e-20
1.59067e-19
7.52528e-20
1.71874e-19
7.05486e-20
1.8332e-19
6.5593e-20
1.9329e-19
6.04298e-20
2.01664e-19
5.51083e-20
2.08324e-19
4.96812e-20
2.13144e-19
4.4196e-20
2.1599e-19
3.87325e-20
2.16689e-19
3.33696e-20
2.15115e-19
2.81983e-20
2.1107e-19
2.32552e-20
2.04326e-19
1.86339e-20
1.94756e-19
1.44301e-20
1.82035e-19
1.05478e-20
1.65682e-19
7.21694e-21
1.45848e-19
4.26484e-21
1.22069e-19
1.65602e-21
9.33346e-20
2.84418e-22
6.01975e-20
2.21896e-20
2.77768e-22
-2.47698e-20
1.10242e-21
-6.67543e-20
2.40542e-21
-1.03814e-19
4.10209e-21
-1.35368e-19
6.15125e-21
-1.61793e-19
8.50846e-21
-1.83462e-19
1.11377e-20
-2.00737e-19
1.40014e-20
-2.13951e-19
1.70609e-20
-2.23425e-19
2.02615e-20
-2.29438e-19
2.3488e-20
-2.32225e-19
2.67346e-20
-2.32125e-19
3.00206e-20
-2.29375e-19
3.32501e-20
-2.24121e-19
3.63798e-20
-2.16615e-19
3.93785e-20
-2.07065e-19
4.22192e-20
-1.95668e-19
4.48794e-20
-1.82604e-19
4.73338e-20
-1.68061e-19
4.95616e-20
-1.52223e-19
5.15379e-20
-1.35263e-19
5.32615e-20
-1.17343e-19
5.47169e-20
-9.86279e-20
5.59097e-20
-7.92754e-20
5.68225e-20
-5.94418e-20
5.74377e-20
-3.9287e-20
5.77299e-20
-1.89779e-20
5.77053e-20
1.33002e-21
5.73797e-20
2.14838e-20
5.67756e-20
4.13475e-20
5.58998e-20
6.0787e-20
5.47472e-20
7.96722e-20
5.33192e-20
9.78737e-20
5.16299e-20
1.15267e-19
4.96997e-20
1.31734e-19
4.75458e-20
1.47156e-19
4.51847e-20
1.61426e-19
4.26349e-20
1.74423e-19
3.9921e-20
1.86034e-19
3.70687e-20
1.96141e-19
3.41041e-20
2.04632e-19
3.1057e-20
2.11382e-19
2.79515e-20
2.16261e-19
2.48408e-20
2.19118e-19
2.17431e-20
2.19815e-19
1.87123e-20
2.18189e-19
1.58185e-20
2.1405e-19
1.31125e-20
2.0722e-19
1.05731e-20
1.97363e-19
8.2454e-21
1.84315e-19
6.29067e-21
1.68097e-19
4.25979e-21
1.47766e-19
2.33977e-21
1.23129e-19
1.35494e-21
9.46804e-20
4.0481e-22
6.06873e-20
2.25708e-20
6.27881e-23
-2.47897e-20
2.83104e-22
-6.69339e-20
6.517e-22
-1.04101e-19
1.09257e-21
-1.35723e-19
1.55953e-21
-1.62235e-19
2.08479e-21
-1.83986e-19
2.67132e-21
-2.0133e-19
3.32781e-21
-2.14608e-19
4.03658e-21
-2.24126e-19
4.80869e-21
-2.30198e-19
5.64013e-21
-2.33047e-19
6.48466e-21
-2.32961e-19
7.31174e-21
-2.30192e-19
8.11898e-21
-2.24919e-19
8.913e-21
-2.17406e-19
9.68343e-21
-2.07835e-19
1.04146e-20
-1.96399e-19
1.11002e-20
-1.83289e-19
1.17285e-20
-1.68693e-19
1.22981e-20
-1.5279e-19
1.28033e-20
-1.35746e-19
1.32506e-20
-1.1774e-19
1.36466e-20
-9.89377e-20
1.39949e-20
-7.95014e-20
1.42621e-20
-5.9597e-20
1.44293e-20
-3.93932e-20
1.44776e-20
-1.90418e-20
1.44228e-20
1.31393e-21
1.42813e-20
2.15336e-20
1.40787e-20
4.14817e-20
1.38132e-20
6.10093e-20
1.3481e-20
7.998e-20
1.30763e-20
9.82581e-20
1.26006e-20
1.15726e-19
1.20656e-20
1.32257e-19
1.14713e-20
1.47746e-19
1.08283e-20
1.62064e-19
1.01409e-20
1.75108e-19
9.41614e-21
1.86752e-19
8.66641e-21
1.9689e-19
7.90224e-21
2.05401e-19
7.13301e-21
2.12161e-19
6.3626e-21
2.17043e-19
5.58891e-21
2.19904e-19
4.81419e-21
2.20603e-19
4.12783e-21
2.18931e-19
3.54926e-21
2.14728e-19
3.02067e-21
2.07782e-19
2.56379e-21
1.97967e-19
2.21219e-21
1.85014e-19
1.77987e-21
1.68235e-19
1.47331e-21
1.47911e-19
1.10976e-21
1.23902e-19
3.53611e-23
9.45852e-20
-2.3491e-22
6.09771e-20
2.23329e-20
-1.22326e-22
-2.46821e-20
-4.58193e-22
-6.64797e-20
-1.02779e-21
-1.03383e-19
-1.89562e-21
-1.34782e-19
-2.98981e-21
-1.61097e-19
-4.28269e-21
-1.82683e-19
-5.71806e-21
-1.99894e-19
-7.23778e-21
-2.1308e-19
-8.81026e-21
-2.22537e-19
-1.04449e-20
-2.28548e-19
-1.20897e-20
-2.31385e-19
-1.37265e-20
-2.31309e-19
-1.53396e-20
-2.28562e-19
-1.68954e-20
-2.23353e-19
-1.84023e-20
-2.15888e-19
-1.98444e-20
-2.06383e-19
-2.12073e-20
-1.95027e-19
-2.24848e-20
-1.82009e-19
-2.36629e-20
-1.67507e-19
-2.47398e-20
-1.51704e-19
-2.56939e-20
-1.34771e-19
-2.65173e-20
-1.1688e-19
-2.71883e-20
-9.8189e-20
-2.7726e-20
-7.88832e-20
-2.81275e-20
-5.91227e-20
-2.84218e-20
-3.90764e-20
-2.86029e-20
-1.88798e-20
-2.86716e-20
1.32435e-21
-2.85969e-20
2.14133e-20
-2.8386e-20
4.12303e-20
-2.80318e-20
6.06351e-20
-2.75523e-20
7.9476e-20
-2.69399e-20
9.76324e-20
-2.62107e-20
1.14981e-19
-2.53586e-20
1.31404e-19
-2.44005e-20
1.4678e-19
-2.33318e-20
1.60994e-19
-2.21683e-20
1.73933e-19
-2.09064e-20
1.8549e-19
-1.95665e-20
1.95547e-19
-1.81471e-20
2.03987e-19
-1.66726e-20
2.10687e-19
-1.5139e-20
2.15514e-19
-1.35549e-20
2.18316e-19
-1.19118e-20
2.18974e-19
-1.027e-20
2.17306e-19
-8.62592e-21
2.1314e-19
-6.964e-21
2.06306e-19
-5.37069e-21
1.96439e-19
-3.86603e-21
1.83352e-19
-2.35013e-21
1.67222e-19
-1.46551e-21
1.47023e-19
-1.04909e-21
1.22274e-19
2.19078e-23
9.40918e-20
1.48775e-22
6.02854e-20
2.24543e-20
-4.02509e-22
-2.42166e-20
-1.22947e-21
-6.54811e-20
-2.7413e-21
-1.0175e-19
-4.84268e-21
-1.32552e-19
-7.50697e-21
-1.58374e-19
-1.06183e-20
-1.7955e-19
-1.40674e-20
-1.9643e-19
-1.77673e-20
-2.09361e-19
-2.16521e-20
-2.1863e-19
-2.56532e-20
-2.24517e-19
-2.96996e-20
-2.27309e-19
-3.3752e-20
-2.27226e-19
-3.77852e-20
-2.24506e-19
-4.17272e-20
-2.19388e-19
-4.55355e-20
-2.12058e-19
-4.91766e-20
-2.02717e-19
-5.26243e-20
-1.91559e-19
-5.58438e-20
-1.78766e-19
-5.88153e-20
-1.64521e-19
-6.15077e-20
-1.48995e-19
-6.39089e-20
-1.32356e-19
-6.59916e-20
-1.14768e-19
-6.77546e-20
-9.64051e-20
-6.91771e-20
-7.74373e-20
-7.02644e-20
-5.80276e-20
-7.10077e-20
-3.8328e-20
-7.14133e-20
-1.84782e-20
-7.14675e-20
1.38401e-21
-7.11808e-20
2.11229e-20
-7.05418e-20
4.05906e-20
-6.95726e-20
5.96521e-20
-6.82704e-20
7.81679e-20
-6.66586e-20
9.60109e-20
-6.47287e-20
1.13052e-19
-6.25115e-20
1.29179e-19
-6.00029e-20
1.44268e-19
-5.72412e-20
1.58223e-19
-5.42295e-20
1.7092e-19
-5.10031e-20
1.82256e-19
-4.75741e-20
1.92115e-19
-4.39808e-20
2.00386e-19
-4.02414e-20
2.06943e-19
-3.64021e-20
2.11661e-19
-3.25052e-20
2.14403e-19
-2.85806e-20
2.15029e-19
-2.46414e-20
2.13395e-19
-2.07211e-20
2.09299e-19
-1.69157e-20
2.02484e-19
-1.32724e-20
1.92922e-19
-9.81821e-21
1.80318e-19
-6.88363e-21
1.63859e-19
-4.20508e-21
1.44051e-19
-2.04441e-21
1.20806e-19
-1.57044e-21
9.21358e-20
-6.59428e-22
5.94432e-20
2.1792e-20
-4.49339e-22
-2.37188e-20
-1.95372e-21
-6.3785e-20
-4.38689e-21
-9.90641e-20
-7.80369e-21
-1.28999e-19
-1.2033e-20
-1.54063e-19
-1.69398e-20
-1.74597e-19
-2.2393e-20
-1.90946e-19
-2.82606e-20
-2.03461e-19
-3.44206e-20
-2.12426e-19
-4.07726e-20
-2.18117e-19
-4.72293e-20
-2.20803e-19
-5.37058e-20
-2.20704e-19
-6.012e-20
-2.18049e-19
-6.64058e-20
-2.1306e-19
-7.24853e-20
-2.05934e-19
-7.83057e-20
-1.96854e-19
-8.38099e-20
-1.86011e-19
-8.89575e-20
-1.7358e-19
-9.37019e-20
-1.59742e-19
-9.80099e-20
-1.44656e-19
-1.01842e-19
-1.28499e-19
-1.05173e-19
-1.1142e-19
-1.07988e-19
-9.35929e-20
-1.10272e-19
-7.51612e-20
-1.12015e-19
-5.63019e-20
-1.13199e-19
-3.71446e-20
-1.13818e-19
-1.7853e-20
-1.13868e-19
1.46068e-21
-1.13364e-19
2.06395e-20
-1.12319e-19
3.9567e-20
-1.10745e-19
5.808e-20
-1.08639e-19
7.60703e-20
-1.06022e-19
9.33883e-20
-1.02904e-19
1.09936e-19
-9.93193e-20
1.25582e-19
-9.5286e-20
1.40234e-19
-9.08414e-20
1.53763e-19
-8.60051e-20
1.66079e-19
-8.08277e-20
1.77058e-19
-7.53382e-20
1.86616e-19
-6.95953e-20
1.94617e-19
-6.36357e-20
2.00968e-19
-5.75367e-20
2.05522e-19
-5.13391e-20
2.08176e-19
-4.51091e-20
2.08772e-19
-3.88887e-20
2.0716e-19
-3.27678e-20
2.03173e-19
-2.67821e-20
1.96693e-19
-2.11158e-20
1.87281e-19
-1.58578e-20
1.74764e-19
-1.09242e-20
1.59524e-19
-7.1191e-21
1.40299e-19
-4.41379e-21
1.16519e-19
-1.33528e-21
8.98281e-20
-1.52259e-22
5.75468e-20
2.16012e-20
-7.59887e-22
-2.28713e-20
-2.70054e-21
-6.14716e-20
-6.11776e-21
-9.54422e-20
-1.0763e-20
-1.24151e-19
-1.65533e-20
-1.48144e-19
-2.32729e-20
-1.67813e-19
-3.07284e-20
-1.8344e-19
-3.87449e-20
-1.9539e-19
-4.71661e-20
-2.03943e-19
-5.58544e-20
-2.09368e-19
-6.46884e-20
-2.11903e-19
-7.35525e-20
-2.11782e-19
-8.23295e-20
-2.09214e-19
-9.09278e-20
-2.04412e-19
-9.92475e-20
-1.97555e-19
-1.07213e-19
-1.88832e-19
-1.14745e-19
-1.78415e-19
-1.21795e-19
-1.66487e-19
-1.28284e-19
-1.532e-19
-1.34181e-19
-1.38729e-19
-1.39418e-19
-1.23217e-19
-1.43995e-19
-1.06839e-19
-1.47844e-19
-8.97315e-20
-1.50977e-19
-7.20585e-20
-1.53333e-19
-5.39485e-20
-1.54945e-19
-3.55564e-20
-1.55758e-19
-1.70056e-20
-1.55831e-19
1.54719e-21
-1.55115e-19
1.9973e-20
-1.53674e-19
3.81296e-20
-1.51466e-19
5.59031e-20
-1.48569e-19
7.31558e-20
-1.44941e-19
8.97786e-20
-1.40671e-19
1.05642e-19
-1.35721e-19
1.20648e-19
-1.30197e-19
1.3468e-19
-1.24069e-19
1.4764e-19
-1.17453e-19
1.59424e-19
-1.10334e-19
1.69936e-19
-1.02834e-19
1.79066e-19
-9.49518e-20
1.86718e-19
-8.68243e-20
1.92773e-19
-7.84661e-20
1.97126e-19
-7.00137e-20
1.99648e-19
-6.1499e-20
2.00209e-19
-5.30471e-20
1.98681e-19
-4.46799e-20
1.94881e-19
-3.66394e-20
1.88534e-19
-2.89559e-20
1.79684e-19
-2.17579e-20
1.68088e-19
-1.55187e-20
1.52653e-19
-9.84729e-21
1.34184e-19
-5.18433e-21
1.12828e-19
-3.18083e-21
8.59832e-20
-1.23889e-21
5.55693e-20
2.03537e-20
-8.6371e-22
-2.18738e-20
-3.47664e-21
-5.85965e-20
-7.78313e-21
-9.07537e-20
-1.37532e-20
-1.17943e-19
-2.11377e-20
-1.40626e-19
-2.96531e-20
-1.59195e-19
-3.90998e-20
-1.73923e-19
-4.92477e-20
-1.85168e-19
-5.99172e-20
-1.93211e-19
-7.09089e-20
-1.98292e-19
-8.21e-20
-2.00655e-19
-9.33033e-20
-2.0051e-19
-1.04423e-19
-1.98059e-19
-1.1528e-19
-1.93485e-19
-1.2582e-19
-1.86971e-19
-1.35875e-19
-1.78697e-19
-1.45434e-19
-1.68829e-19
-1.54318e-19
-1.57526e-19
-1.62558e-19
-1.44943e-19
-1.69975e-19
-1.31237e-19
-1.76637e-19
-1.16555e-19
-1.82372e-19
-1.0105e-19
-1.87277e-19
-8.48518e-20
-1.91188e-19
-6.8115e-20
-1.94216e-19
-5.09597e-20
-1.96192e-19
-3.35362e-20
-1.97259e-19
-1.59622e-20
-1.97263e-19
1.60873e-21
-1.96382e-19
1.90695e-20
-1.94471e-19
3.62686e-20
-1.91714e-19
5.31081e-20
-1.87967e-19
6.94432e-20
-1.83415e-19
8.51865e-20
-1.77926e-19
1.00195e-19
-1.71706e-19
1.14387e-19
-1.64637e-19
1.27636e-19
-1.56932e-19
1.39881e-19
-1.48491e-19
1.50993e-19
-1.3953e-19
1.60906e-19
-1.29979e-19
1.69497e-19
-1.20064e-19
1.76703e-19
-1.09737e-19
1.82393e-19
-9.92181e-20
1.86494e-19
-8.84934e-20
1.88865e-19
-7.77661e-20
1.8941e-19
-6.70545e-20
1.87939e-19
-5.65988e-20
1.84338e-19
-4.6389e-20
1.78526e-19
-3.67261e-20
1.70066e-19
-2.7852e-20
1.5863e-19
-1.95178e-20
1.45029e-19
-1.28231e-20
1.27751e-19
-7.83306e-21
1.05865e-19
-2.70439e-21
8.17595e-20
-4.8585e-22
5.25108e-20
1.98215e-20
-1.16471e-21
-2.06115e-20
-4.24684e-21
-5.50731e-20
-9.59973e-21
-8.5109e-20
-1.68365e-20
-1.10519e-19
-2.57688e-20
-1.31573e-19
-3.61103e-20
-1.48811e-19
-4.75349e-20
-1.62474e-19
-5.9812e-20
-1.72879e-19
-7.2685e-20
-1.80307e-19
-8.5977e-20
-1.84996e-19
-9.94575e-20
-1.87159e-19
-1.12993e-19
-1.86988e-19
-1.26374e-19
-1.84671e-19
-1.39496e-19
-1.80388e-19
-1.52167e-19
-1.74302e-19
-1.64324e-19
-1.66577e-19
-1.75798e-19
-1.57362e-19
-1.86557e-19
-1.46815e-19
-1.96434e-19
-1.35081e-19
-2.05426e-19
-1.22296e-19
-2.13397e-19
-1.08608e-19
-2.20355e-19
-9.41417e-20
-2.26201e-19
-7.90466e-20
-2.30942e-19
-6.34313e-20
-2.34506e-19
-4.74372e-20
-2.36914e-19
-3.11766e-20
-2.38119e-19
-1.47835e-20
-2.3816e-19
1.62867e-21
-2.37021e-19
1.79187e-20
-2.34746e-19
3.39865e-20
-2.31341e-19
4.96984e-20
-2.26848e-19
6.49594e-20
-2.21288e-19
7.96321e-20
-2.14702e-19
9.36232e-20
-2.07135e-19
1.06825e-19
-1.98641e-19
1.19162e-19
-1.89295e-19
1.30534e-19
-1.79151e-19
1.40857e-19
-1.683e-19
1.5005e-19
-1.5682e-19
1.58019e-19
-1.44829e-19
1.64691e-19
-1.32411e-19
1.69976e-19
-1.19708e-19
1.73782e-19
-1.06806e-19
1.7599e-19
-9.3871e-20
1.76481e-19
-8.10043e-20
1.75147e-19
-6.83547e-20
1.7186e-19
-5.61362e-20
1.66287e-19
-4.46241e-20
1.58505e-19
-3.37082e-20
1.4856e-19
-2.42503e-20
1.34986e-19
-1.57249e-20
1.18478e-19
-8.40507e-21
1.00115e-19
-4.77869e-21
7.62511e-20
-1.75479e-21
4.95248e-20
1.80657e-20
-1.34032e-21
-1.91656e-20
-5.07699e-21
-5.09887e-20
-1.14331e-20
-7.86132e-20
-2.00121e-20
-1.01857e-19
-3.05521e-20
-1.21095e-19
-4.27019e-20
-1.36799e-19
-5.60826e-20
-1.49209e-19
-7.04648e-20
-1.58644e-19
-8.55184e-20
-1.6537e-19
-1.01067e-19
-1.69607e-19
-1.16801e-19
-1.71533e-19
-1.32627e-19
-1.71357e-19
-1.48206e-19
-1.6922e-19
-1.63544e-19
-1.65292e-19
-1.78284e-19
-1.59697e-19
-1.92528e-19
-1.52627e-19
-2.0585e-19
-1.44181e-19
-2.18461e-19
-1.34532e-19
-2.29895e-19
-1.23764e-19
-2.40473e-19
-1.12069e-19
-2.49657e-19
-9.95123e-20
-2.57879e-19
-8.62906e-20
-2.64547e-19
-7.24371e-20
-2.70193e-19
-5.81546e-20
-2.74174e-19
-4.34677e-20
-2.77105e-19
-2.85767e-20
-2.7831e-19
-1.3498e-20
-2.78496e-19
1.54117e-21
-2.76944e-19
1.65347e-20
-2.74435e-19
3.12592e-20
-2.70232e-19
4.57177e-20
-2.65156e-19
5.969e-20
-2.58453e-19
7.31794e-20
-2.50964e-19
8.59624e-20
-2.41924e-19
9.80661e-20
-2.32206e-19
1.09303e-19
-2.21086e-19
1.19712e-19
-2.09436e-19
1.29135e-19
-1.96583e-19
1.37549e-19
-1.8337e-19
1.44799e-19
-1.69181e-19
1.50903e-19
-1.5485e-19
1.55722e-19
-1.39854e-19
1.5922e-19
-1.24964e-19
1.61245e-19
-1.0974e-19
1.61733e-19
-9.4864e-20
1.60508e-19
-8.00646e-20
1.5744e-19
-6.59538e-20
1.52526e-19
-5.22573e-20
1.4549e-19
-3.9892e-20
1.35727e-19
-2.83961e-20
1.24133e-19
-1.86305e-20
1.09944e-19
-1.13753e-20
9.10485e-20
-4.1994e-21
7.04914e-20
-6.78291e-22
4.55003e-20
1.73677e-20
-1.42658e-21
-1.75838e-20
-6.00156e-21
-4.63506e-20
-1.33148e-20
-7.12235e-20
-2.33099e-20
-9.19863e-20
-3.54501e-20
-1.09149e-19
-4.93855e-20
-1.22997e-19
-6.47823e-20
-1.34001e-19
-8.11941e-20
-1.42333e-19
-9.84605e-20
-1.48272e-19
-1.16147e-19
-1.51979e-19
-1.34187e-19
-1.53695e-19
-1.52117e-19
-1.53478e-19
-1.70002e-19
-1.51583e-19
-1.87337e-19
-1.48019e-19
-2.04306e-19
-1.43077e-19
-2.20324e-19
-1.36693e-19
-2.35723e-19
-1.29199e-19
-2.49834e-19
-1.20486e-19
-2.63134e-19
-1.10932e-19