/*--------------------------------*- C++ -*----------------------------------*\
| =========                 |                                                 |
| \\      /  F ield         | OpenFOAM: The Open Source CFD Toolbox           |
|  \\    /   O peration     | Version:  5.0                                   |
|   \\  /    A nd           | Web:      www.OpenFOAM.org                      |
|    \\/     M anipulation  |                                                 |
\*---------------------------------------------------------------------------*/
FoamFile
{
    version     2.0;
    format      ascii;
    class       volScalarField;
    location    "149";
    object      p;
}
// * * * * * * * * * * * * * * * * * * * * * * * * * * * * * * * * * * * * * //

dimensions      [0 2 -2 0 0 0 0];

internalField   nonuniform List<scalar> 
1568
(
6.47116e-13
-8.73956e-14
1.12476e-12
-5.09124e-14
6.73872e-13
1.81832e-12
1.77107e-12
1.83397e-12
2.11687e-12
2.31298e-12
2.45424e-12
2.64977e-12
2.8669e-12
3.06654e-12
3.24659e-12
3.43806e-12
3.61704e-12
3.81446e-12
4.00215e-12
4.21747e-12
4.3927e-12
4.58529e-12
4.77324e-12
5.02923e-12
5.29402e-12
5.6484e-12
5.94691e-12
6.23224e-12
6.37191e-12
6.52139e-12
6.61683e-12
6.8186e-12
6.98109e-12
7.18963e-12
7.31818e-12
7.48986e-12
7.58223e-12
7.73263e-12
7.82261e-12
7.93623e-12
8.00199e-12
8.10947e-12
8.17413e-12
8.28295e-12
8.36828e-12
8.4764e-12
8.56215e-12
8.66272e-12
8.75467e-12
8.89113e-12
8.97955e-12
9.15877e-12
9.53149e-12
9.43269e-12
9.99646e-12
1.01864e-11
1.57914e-13
-2.1148e-11
1.38912e-11
5.98273e-12
-3.59729e-12
3.57265e-12
3.57005e-12
2.19247e-12
2.84965e-12
3.51712e-12
3.51403e-12
3.53726e-12
3.66225e-12
3.82227e-12
4.06584e-12
4.33516e-12
4.51195e-12
4.84387e-12
5.04806e-12
5.30215e-12
5.37404e-12
5.63769e-12
5.57089e-12
5.66766e-12
5.56776e-12
5.90713e-12
5.88581e-12
6.21864e-12
6.04048e-12
6.55152e-12
6.4546e-12
6.63689e-12
6.25995e-12
6.50626e-12
6.33549e-12
6.74417e-12
6.52994e-12
6.85511e-12
6.73502e-12
6.94822e-12
6.9323e-12
7.30322e-12
7.23235e-12
7.36206e-12
7.28687e-12
7.46372e-12
7.48054e-12
7.66638e-12
7.76342e-12
8.11247e-12
8.17554e-12
8.38152e-12
9.21967e-12
6.52668e-12
1.06925e-11
9.99371e-12
1.98465e-12
4.6849e-12
-1.94537e-12
-6.61781e-13
-2.40494e-12
1.88519e-12
1.50879e-12
8.5591e-13
1.17164e-12
1.0011e-12
1.60293e-12
2.08056e-12
2.09287e-12
2.27987e-12
2.5338e-12
2.54627e-12
2.74644e-12
2.91163e-12
3.16395e-12
3.3324e-12
3.64225e-12
3.95351e-12
4.42688e-12
4.68931e-12
5.12493e-12
5.28368e-12
5.54167e-12
5.73912e-12
6.11505e-12
6.23998e-12
6.58403e-12
7.10276e-12
7.97456e-12
8.27262e-12
8.48578e-12
8.52881e-12
8.83439e-12
8.80186e-12
8.96218e-12
9.02885e-12
8.91483e-12
8.61795e-12
8.83442e-12
8.92596e-12
9.14772e-12
9.23476e-12
9.36559e-12
9.54265e-12
9.58118e-12
9.35654e-12
9.63516e-12
9.02998e-12
1.09609e-11
9.9737e-12
9.28592e-12
9.59439e-12
1.38952e-12
5.73156e-12
5.26462e-12
-2.44414e-13
2.40238e-12
4.89553e-12
3.26611e-12
3.04494e-12
4.15931e-12
4.45134e-12
4.24347e-12
4.18816e-12
4.39424e-12
4.74859e-12
4.79285e-12
4.99529e-12
5.15076e-12
5.2331e-12
5.23992e-12
5.47088e-12
5.52117e-12
5.6084e-12
5.57413e-12
5.69153e-12
5.72226e-12
5.91845e-12
5.96373e-12
6.15727e-12
6.19293e-12
6.29656e-12
6.17226e-12
5.97986e-12
5.70908e-12
5.59437e-12
5.6253e-12
5.7413e-12
5.81285e-12
5.96796e-12
6.00587e-12
6.28113e-12
6.5222e-12
6.84157e-12
6.95983e-12
7.07956e-12
7.12113e-12
7.18824e-12
7.18007e-12
7.36764e-12
7.61035e-12
7.74543e-12
7.96194e-12
8.1964e-12
8.87205e-12
6.93623e-12
1.02797e-11
9.49792e-12
1.14753e-12
-1.94712e-12
2.0597e-13
2.72215e-13
3.38048e-12
3.68675e-12
2.48641e-12
2.80679e-12
3.45932e-12
3.72313e-12
3.71171e-12
3.80669e-12
3.95833e-12
4.0881e-12
4.17574e-12
4.36494e-12
4.57495e-12
4.78998e-12
4.96941e-12
5.1241e-12
5.2309e-12
5.31774e-12
5.4218e-12
5.54984e-12
5.64967e-12
5.79391e-12
5.9254e-12
5.96264e-12
6.02127e-12
6.11764e-12
6.23674e-12
6.29331e-12
6.33075e-12
6.35441e-12
6.54354e-12
6.65373e-12
6.69778e-12
6.7679e-12
6.84287e-12
6.90607e-12
6.96191e-12
7.0177e-12
7.05313e-12
7.10332e-12
7.18763e-12
7.26531e-12
7.378e-12
7.57178e-12
7.58921e-12
7.83273e-12
8.2804e-12
7.10924e-12
8.58931e-12
9.85633e-12
8.08835e-12
9.02515e-12
2.00369e-12
1.49993e-12
2.27486e-12
3.08495e-12
3.19953e-12
2.00874e-12
2.0668e-12
2.86609e-12
2.92332e-12
2.88327e-12
3.05282e-12
3.31253e-12
3.50141e-12
3.68949e-12
3.86272e-12
3.96994e-12
4.07173e-12
4.20874e-12
4.36734e-12
4.48905e-12
4.63282e-12
4.83959e-12
5.02587e-12
5.19199e-12
5.33316e-12
5.4762e-12
5.65093e-12
5.83256e-12
5.99689e-12
6.19078e-12
6.36749e-12
6.57705e-12
6.82694e-12
7.01757e-12
7.12271e-12
7.21293e-12
7.29491e-12
7.40911e-12
7.49661e-12
7.57154e-12
7.61939e-12
7.68488e-12
7.75424e-12
7.80981e-12
7.91563e-12
8.00289e-12
8.0515e-12
8.227e-12
8.30957e-12
8.18201e-12
8.52214e-12
8.77771e-12
8.80972e-12
6.70843e-12
9.36442e-12
8.92618e-12
2.2966e-12
3.54492e-12
3.27751e-12
3.13964e-12
2.98971e-12
2.59696e-12
3.05409e-12
3.66371e-12
3.722e-12
3.64297e-12
3.81376e-12
4.00437e-12
4.10944e-12
4.20932e-12
4.32821e-12
4.45737e-12
4.58001e-12
4.67841e-12
4.79239e-12
4.92359e-12
5.06284e-12
5.18047e-12
5.29504e-12
5.41111e-12
5.54434e-12
5.66252e-12
5.79276e-12
5.91016e-12
6.03909e-12
6.13675e-12
6.18109e-12
6.23036e-12
6.34827e-12
6.43465e-12
6.48145e-12
6.53691e-12
6.66439e-12
6.75958e-12
6.84305e-12
6.94209e-12
7.06053e-12
7.15874e-12
7.25787e-12
7.36636e-12
7.48494e-12
7.53334e-12
7.59697e-12
7.7978e-12
7.7288e-12
7.72169e-12
8.39159e-12
7.53437e-12
8.26678e-12
9.42142e-12
8.42725e-12
8.47776e-12
2.45497e-12
3.14436e-12
2.49985e-12
2.48838e-12
3.24728e-12
3.37695e-12
3.57672e-12
3.8149e-12
3.91231e-12
3.88086e-12
4.07478e-12
4.24119e-12
4.33841e-12
4.42758e-12
4.52824e-12
4.65722e-12
4.78283e-12
4.89212e-12
4.99856e-12
5.11166e-12
5.21222e-12
5.31694e-12
5.40291e-12
5.50293e-12
5.60375e-12
5.70967e-12
5.79017e-12
5.87682e-12
5.97074e-12
6.04948e-12
6.13528e-12
6.21741e-12
6.24246e-12
6.29001e-12
6.38347e-12
6.47252e-12
6.54391e-12
6.61718e-12
6.67601e-12
6.75746e-12
6.83011e-12
6.88151e-12
6.93855e-12
7.02469e-12
7.08945e-12
7.11001e-12
7.16839e-12
7.3835e-12
7.43787e-12
7.37614e-12
7.69272e-12
7.70209e-12
8.08717e-12
6.60509e-12
8.43533e-12
8.24359e-12
2.83313e-12
3.15492e-12
2.82236e-12
3.02612e-12
3.84685e-12
3.61015e-12
3.64992e-12
3.83972e-12
3.91074e-12
4.00245e-12
4.15808e-12
4.20406e-12
4.31647e-12
4.4509e-12
4.54869e-12
4.65141e-12
4.74934e-12
4.85182e-12
4.96118e-12
5.05599e-12
5.14738e-12
5.27318e-12
5.37015e-12
5.46261e-12
5.56091e-12
5.6549e-12
5.75094e-12
5.84615e-12
5.94127e-12
6.02227e-12
6.13673e-12
6.24271e-12
6.32889e-12
6.40698e-12
6.50442e-12
6.58132e-12
6.6439e-12
6.69881e-12
6.76238e-12
6.82832e-12
6.89161e-12
6.94268e-12
6.99441e-12
7.05143e-12
7.11021e-12
7.15132e-12
7.23001e-12
7.39141e-12
7.35094e-12
7.3419e-12
7.82045e-12
7.1244e-12
7.6908e-12
8.14366e-12
7.67451e-12
7.89165e-12
3.33455e-12
3.94894e-12
3.40823e-12
3.59876e-12
4.27706e-12
3.7733e-12
3.85962e-12
4.13707e-12
4.11066e-12
4.18357e-12
4.34584e-12
4.42867e-12
4.50892e-12
4.59335e-12
4.66394e-12
4.76812e-12
4.85319e-12
4.93225e-12
5.01826e-12
5.13707e-12
5.20925e-12
5.27664e-12
5.3663e-12
5.46461e-12
5.54416e-12
5.63573e-12
5.74362e-12
5.85112e-12
5.93808e-12
6.02965e-12
6.10123e-12
6.17822e-12
6.25099e-12
6.33656e-12
6.4101e-12
6.46928e-12
6.53937e-12
6.61463e-12
6.67889e-12
6.74063e-12
6.80114e-12
6.85966e-12
6.90665e-12
6.98333e-12
7.06042e-12
7.08861e-12
7.1299e-12
7.29046e-12
7.2798e-12
7.22224e-12
7.56291e-12
7.20003e-12
7.81134e-12
7.02466e-12
7.6404e-12
7.64277e-12
3.75901e-12
4.42201e-12
3.69684e-12
3.97165e-12
4.58192e-12
4.02578e-12
4.11196e-12
4.43347e-12
4.45675e-12
4.46548e-12
4.53339e-12
4.66973e-12
4.72693e-12
4.76405e-12
4.84206e-12
4.92851e-12
5.00823e-12
5.08065e-12
5.15366e-12
5.21498e-12
5.30401e-12
5.36942e-12
5.4542e-12
5.51503e-12
5.594e-12
5.66786e-12
5.75973e-12
5.83513e-12
5.91819e-12
5.9925e-12
6.04534e-12
6.10631e-12
6.17306e-12
6.23458e-12
6.29593e-12
6.35169e-12
6.41278e-12
6.47171e-12
6.52874e-12
6.58464e-12
6.64282e-12
6.689e-12
6.7313e-12
6.79887e-12
6.86905e-12
6.87072e-12
6.91861e-12
7.08329e-12
7.02736e-12
6.95421e-12
7.41885e-12
6.94347e-12
7.16068e-12
7.21002e-12
7.39806e-12
7.3275e-12
4.18243e-12
4.8465e-12
4.01093e-12
4.2212e-12
4.84247e-12
4.34268e-12
4.41867e-12
4.69484e-12
4.69082e-12
4.6985e-12
4.76282e-12
4.83049e-12
4.85624e-12
4.91658e-12
5.02271e-12
5.05414e-12
5.09476e-12
5.1657e-12
5.24644e-12
5.2794e-12
5.36046e-12
5.44556e-12
5.52352e-12
5.5933e-12
5.69206e-12
5.75698e-12
5.78348e-12
5.78713e-12
5.82809e-12
5.89816e-12
5.98094e-12
6.06048e-12
6.12021e-12
6.17407e-12
6.22577e-12
6.29181e-12
6.34399e-12
6.39289e-12
6.43749e-12
6.48574e-12
6.5316e-12
6.58015e-12
6.61693e-12
6.669e-12
6.72736e-12
6.71523e-12
6.74495e-12
6.89968e-12
6.83261e-12
6.78519e-12
7.11443e-12
6.5753e-12
7.22171e-12
7.02252e-12
6.72428e-12
6.99312e-12
4.59625e-12
5.15183e-12
4.41405e-12
4.5748e-12
5.12064e-12
4.65466e-12
4.7046e-12
4.93448e-12
4.8886e-12
4.87576e-12
4.94988e-12
5.00364e-12
5.03501e-12
5.0765e-12
5.13332e-12
5.16839e-12
5.21671e-12
5.27778e-12
5.33376e-12
5.38249e-12
5.42298e-12
5.47328e-12
5.4853e-12
5.49073e-12
5.52744e-12
5.61908e-12
5.73884e-12
5.8761e-12
5.97481e-12
5.99631e-12
6.00422e-12
6.0372e-12
6.08365e-12
6.14463e-12
6.19478e-12
6.21761e-12
6.27557e-12
6.32562e-12
6.36447e-12
6.40605e-12
6.44776e-12
6.47984e-12
6.50319e-12
6.53785e-12
6.60139e-12
6.60144e-12
6.60776e-12
6.75988e-12
6.70399e-12
6.54347e-12
6.99044e-12
6.71373e-12
6.63594e-12
6.14948e-12
7.08575e-12
6.74602e-12
5.02256e-12
5.53713e-12
4.77323e-12
4.94225e-12
5.43084e-12
4.9502e-12
4.96014e-12
5.16714e-12
5.11405e-12
5.06632e-12
5.11283e-12
5.15793e-12
5.18992e-12
5.20705e-12
5.21752e-12
5.26615e-12
5.32292e-12
5.35056e-12
5.37908e-12
5.43441e-12
5.48179e-12
5.54016e-12
5.61344e-12
5.71614e-12
5.76983e-12
5.79205e-12
5.75832e-12
5.73006e-12
5.76005e-12
5.84417e-12
5.9192e-12
5.98599e-12
6.02572e-12
6.06763e-12
6.13009e-12
6.16191e-12
6.21419e-12
6.24702e-12
6.27743e-12
6.32433e-12
6.36393e-12
6.39063e-12
6.41697e-12
6.44279e-12
6.48041e-12
6.48003e-12
6.48226e-12
6.5984e-12
6.52962e-12
6.49798e-12
6.74719e-12
5.98826e-12
6.93738e-12
6.87514e-12
6.12092e-12
6.37785e-12
5.40943e-12
5.87199e-12
5.1239e-12
5.26489e-12
5.74177e-12
5.22959e-12
5.21341e-12
5.41012e-12
5.3473e-12
5.2825e-12
5.31392e-12
5.34508e-12
5.34792e-12
5.35881e-12
5.37688e-12
5.40486e-12
5.42209e-12
5.43295e-12
5.46655e-12
5.51008e-12
5.54224e-12
5.5753e-12
5.63889e-12
5.71903e-12
5.75728e-12
5.76326e-12
5.76323e-12
5.7392e-12
5.75128e-12
5.82838e-12
5.8945e-12
5.9449e-12
5.98746e-12
6.01282e-12
6.05083e-12
6.10987e-12
6.13461e-12
6.15918e-12
6.19348e-12
6.2235e-12
6.25271e-12
6.27475e-12
6.30098e-12
6.33576e-12
6.36785e-12
6.33899e-12
6.32976e-12
6.45784e-12
6.40717e-12
6.1875e-12
6.50372e-12
6.49292e-12
6.3705e-12
4.95895e-12
6.77662e-12
6.18591e-12
5.81368e-12
6.46266e-12
5.47609e-12
5.535e-12
6.05068e-12
5.49782e-12
5.46708e-12
5.64509e-12
5.55963e-12
5.48726e-12
5.51304e-12
5.52568e-12
5.50742e-12
5.50591e-12
5.52726e-12
5.53788e-12
5.54348e-12
5.56371e-12
5.58472e-12
5.58818e-12
5.60317e-12
5.62733e-12
5.60465e-12
5.56174e-12
5.55462e-12
5.60566e-12
5.74468e-12
5.87616e-12
5.94755e-12
5.94129e-12
5.90648e-12
5.90936e-12
5.95666e-12
5.98871e-12
6.00129e-12
6.03418e-12
6.04986e-12
6.08247e-12
6.1174e-12
6.13214e-12
6.15615e-12
6.16999e-12
6.16656e-12
6.19051e-12
6.22538e-12
6.19464e-12
6.18031e-12
6.28522e-12
6.21673e-12
6.17929e-12
6.33294e-12
5.53146e-12
6.63058e-12
6.54134e-12
5.69716e-12
5.81298e-12
6.16845e-12
6.58862e-12
5.72193e-12
5.84628e-12
6.35591e-12
5.74641e-12
5.7135e-12
5.88409e-12
5.77747e-12
5.68883e-12
5.68736e-12
5.68292e-12
5.65681e-12
5.64255e-12
5.63298e-12
5.62872e-12
5.62822e-12
5.63621e-12
5.63864e-12
5.64645e-12
5.65587e-12
5.68009e-12
5.70633e-12
5.75861e-12
5.79252e-12
5.80173e-12
5.77652e-12
5.74656e-12
5.74731e-12
5.78358e-12
5.81785e-12
5.86652e-12
5.88947e-12
5.91469e-12
5.93348e-12
5.96866e-12
5.9856e-12
6.00957e-12
6.02173e-12
6.04724e-12
6.06484e-12
6.0812e-12
6.0728e-12
6.09115e-12
6.11248e-12
6.07876e-12
6.04509e-12
6.16871e-12
6.09815e-12
5.81336e-12
6.13625e-12
6.2655e-12
5.81039e-12
4.23793e-12
6.55479e-12
5.67976e-12
6.55988e-12
7.13445e-12
6.15826e-12
6.13235e-12
6.65036e-12
6.00687e-12
5.95084e-12
6.10597e-12
5.98284e-12
5.87643e-12
5.86908e-12
5.85139e-12
5.81355e-12
5.77977e-12
5.76485e-12
5.75298e-12
5.74208e-12
5.72568e-12
5.72481e-12
5.72224e-12
5.72622e-12
5.71471e-12
5.72135e-12
5.7231e-12
5.74028e-12
5.74468e-12
5.76486e-12
5.76059e-12
5.78584e-12
5.79687e-12
5.8252e-12
5.83318e-12
5.85605e-12
5.85768e-12
5.88812e-12
5.89658e-12
5.92362e-12
5.92963e-12
5.95211e-12
5.95395e-12
5.97242e-12
5.97004e-12
5.97721e-12
5.98276e-12
6.00512e-12
5.95738e-12
5.93537e-12
6.01006e-12
5.91477e-12
5.88428e-12
6.04511e-12
5.08851e-12
6.28791e-12
6.42269e-12
5.00841e-12
5.30791e-12
6.92345e-12
7.25687e-12
6.46617e-12
6.35113e-12
6.91314e-12
6.24645e-12
6.15833e-12
6.29885e-12
6.16113e-12
6.04567e-12
6.0201e-12
5.98807e-12
5.93185e-12
5.8951e-12
5.86652e-12
5.85043e-12
5.81764e-12
5.80295e-12
5.77925e-12
5.7713e-12
5.74999e-12
5.74908e-12
5.73234e-12
5.72712e-12
5.7142e-12
5.72883e-12
5.73563e-12
5.76387e-12
5.7746e-12
5.79698e-12
5.79371e-12
5.81103e-12
5.82301e-12
5.84151e-12
5.84972e-12
5.86664e-12
5.87343e-12
5.88804e-12
5.89371e-12
5.9061e-12
5.9124e-12
5.91733e-12
5.9036e-12
5.90391e-12
5.91759e-12
5.86014e-12
5.80847e-12
5.90889e-12
5.84308e-12
5.51056e-12
5.81983e-12
5.99856e-12
5.42838e-12
3.54553e-12
6.17721e-12
5.249e-12
7.27842e-12
7.61499e-12
6.94917e-12
6.57078e-12
7.15476e-12
6.50122e-12
6.38072e-12
6.5024e-12
6.35622e-12
6.21557e-12
6.16694e-12
6.12514e-12
6.06406e-12
6.02026e-12
5.96996e-12
5.92915e-12
5.88923e-12
5.87172e-12
5.83389e-12
5.82197e-12
5.78751e-12
5.79624e-12
5.75115e-12
5.76259e-12
5.72446e-12
5.75556e-12
5.72481e-12
5.7646e-12
5.72291e-12
5.76323e-12
5.72305e-12
5.77449e-12
5.73915e-12
5.795e-12
5.75865e-12
5.81369e-12
5.76658e-12
5.82025e-12
5.77885e-12
5.82813e-12
5.78213e-12
5.81526e-12
5.75291e-12
5.81077e-12
5.79396e-12
5.77421e-12
5.69662e-12
5.80677e-12
5.64727e-12
5.68197e-12
5.74741e-12
4.55797e-12
6.11901e-12
6.54019e-12
4.58763e-12
4.87653e-12
7.60279e-12
7.74128e-12
7.32151e-12
6.8105e-12
7.51491e-12
6.85163e-12
6.68297e-12
6.77048e-12
6.63439e-12
6.47912e-12
6.44318e-12
6.35353e-12
6.30745e-12
6.19854e-12
6.21645e-12
6.11911e-12
6.14273e-12
6.01064e-12
6.06251e-12
5.93704e-12
6.0024e-12
5.8634e-12
5.94804e-12
5.81386e-12
5.90855e-12
5.74787e-12
5.85492e-12
5.67531e-12
5.79396e-12
5.63466e-12
5.76286e-12
5.58749e-12
5.72314e-12
5.56551e-12
5.72762e-12
5.5706e-12
5.72371e-12
5.56511e-12
5.71406e-12
5.55638e-12
5.69515e-12
5.54092e-12
5.64081e-12
5.53477e-12
5.65078e-12
5.47805e-12
5.53134e-12
5.543e-12
5.55681e-12
5.07926e-12
5.39031e-12
6.0527e-12
5.2801e-12
2.34428e-12
6.16938e-12
4.90241e-12
7.89421e-12
7.8803e-12
7.69153e-12
6.72455e-12
7.40602e-12
6.85394e-12
6.65926e-12
6.75133e-12
6.58905e-12
6.46619e-12
6.37487e-12
6.33821e-12
6.24873e-12
6.18354e-12
6.06572e-12
6.00139e-12
5.93475e-12
5.91881e-12
5.8431e-12
5.82081e-12
5.75359e-12
5.74629e-12
5.70571e-12
5.68557e-12
5.66689e-12
5.65562e-12
5.66839e-12
5.6634e-12
5.6937e-12
5.68613e-12
5.69835e-12
5.67562e-12
5.70892e-12
5.64906e-12
5.68056e-12
5.67112e-12
5.74608e-12
5.71568e-12
5.78051e-12
5.76086e-12
5.85362e-12
5.85609e-12
5.89355e-12
5.82855e-12
5.83166e-12
5.70939e-12
5.75172e-12
5.778e-12
5.60473e-12
5.53081e-12
5.8841e-12
4.30634e-12
5.75248e-12
6.59499e-12
4.71779e-12
4.59132e-12
8.16169e-12
8.14176e-12
7.76847e-12
7.17086e-12
7.56654e-12
6.92303e-12
6.75212e-12
6.84105e-12
6.55413e-12
6.46044e-12
6.30752e-12
6.32225e-12
6.04761e-12
6.1255e-12
5.8648e-12
6.04701e-12
5.69611e-12
5.93596e-12
5.56283e-12
5.88781e-12
5.44918e-12
5.85287e-12
5.34289e-12
5.82754e-12
5.28709e-12
5.85503e-12
5.28649e-12
5.91973e-12
5.31161e-12
5.99227e-12
5.35813e-12
6.08682e-12
5.44319e-12
6.18548e-12
5.47812e-12
6.19917e-12
5.47475e-12
6.20499e-12
5.54142e-12
6.22915e-12
5.556e-12
6.18963e-12
5.57406e-12
6.17469e-12
5.70764e-12
6.13657e-12
5.53402e-12
5.97343e-12
5.54664e-12
5.59068e-12
5.20393e-12
5.8646e-12
5.74305e-12
3.01275e-12
5.51568e-12
4.63213e-12
8.48184e-12
8.86823e-12
7.90625e-12
8.07525e-12
8.42375e-12
7.69846e-12
7.71099e-12
7.7114e-12
7.55644e-12
7.33256e-12
7.36925e-12
7.16468e-12
7.22775e-12
6.99848e-12
7.12516e-12
6.84624e-12
7.01749e-12
6.62627e-12
6.8762e-12
6.42179e-12
6.76494e-12
6.25496e-12
6.63425e-12
6.07025e-12
6.46264e-12
5.84322e-12
6.23804e-12
5.56097e-12
6.01711e-12
5.30082e-12
5.74299e-12
4.9963e-12
5.46422e-12
4.8004e-12
5.36257e-12
4.73059e-12
5.28493e-12
4.69193e-12
5.15917e-12
4.66179e-12
5.13254e-12
4.58571e-12
4.94353e-12
4.51206e-12
4.87464e-12
4.44898e-12
4.71685e-12
4.64067e-12
4.77343e-12
4.40677e-12
5.05488e-12
4.09089e-12
3.92703e-12
6.03024e-12
3.67963e-12
4.30995e-12
8.74925e-12
8.64963e-12
7.07415e-12
7.53414e-12
7.98561e-12
7.35452e-12
7.31598e-12
7.37304e-12
7.28477e-12
7.06468e-12
7.03302e-12
6.84015e-12
6.87712e-12
6.57259e-12
6.58892e-12
6.24101e-12
6.42411e-12
6.0088e-12
6.2804e-12
5.81449e-12
6.17974e-12
5.65864e-12
6.11796e-12
5.49317e-12
6.03444e-12
5.3656e-12
6.03961e-12
5.31622e-12
5.99525e-12
5.11828e-12
5.66861e-12
4.56948e-12
5.12385e-12
4.23026e-12
5.14856e-12
4.46891e-12
5.42799e-12
4.59568e-12
5.68934e-12
5.11091e-12
6.09165e-12
5.40126e-12
6.15837e-12
5.40122e-12
6.03604e-12
5.34726e-12
6.02872e-12
5.54062e-12
5.80955e-12
5.20171e-12
6.03801e-12
5.56936e-12
5.74804e-12
5.01264e-12
5.08096e-12
4.34095e-12
9.13564e-12
9.83259e-12
9.17204e-12
8.46482e-12
8.39404e-12
7.5012e-12
7.03517e-12
7.08806e-12
6.71278e-12
6.66337e-12
6.31224e-12
6.45735e-12
6.03159e-12
6.34696e-12
5.82161e-12
6.30278e-12
5.6468e-12
6.30563e-12
5.44682e-12
6.27857e-12
5.19041e-12
6.15951e-12
4.90801e-12
6.16322e-12
4.77556e-12
6.1232e-12
4.61228e-12
6.107e-12
4.52929e-12
6.33465e-12
4.99564e-12
7.31558e-12
6.06232e-12
7.99348e-12
6.04562e-12
7.62311e-12
5.68263e-12
7.27145e-12
5.50833e-12
6.53064e-12
4.62461e-12
6.07012e-12
4.70029e-12
6.00096e-12
4.81109e-12
5.81165e-12
4.7052e-12
5.56651e-12
4.64994e-12
4.9785e-12
4.32693e-12
3.98571e-12
4.03743e-12
3.62719e-12
3.64272e-12
4.07122e-12
9.30754e-12
8.53521e-12
9.05391e-12
7.96459e-12
8.13619e-12
8.08895e-12
8.06458e-12
7.89236e-12
7.72678e-12
7.56017e-12
7.54743e-12
7.3632e-12
7.29578e-12
7.10019e-12
7.12913e-12
6.88772e-12
6.87661e-12
6.61276e-12
6.63918e-12
6.36207e-12
6.46664e-12
6.21041e-12
6.30773e-12
6.00862e-12
6.1028e-12
5.75199e-12
5.93642e-12
5.57872e-12
5.7784e-12
5.39824e-12
5.50071e-12
4.88439e-12
4.88428e-12
4.47742e-12
4.75253e-12
4.5097e-12
4.84002e-12
4.60761e-12
4.81572e-12
4.77652e-12
5.15067e-12
4.98035e-12
5.05781e-12
4.90624e-12
5.02423e-12
4.86673e-12
4.94542e-12
4.96209e-12
4.90104e-12
4.73729e-12
5.06532e-12
4.99658e-12
4.84975e-12
3.77476e-12
5.31829e-12
4.11619e-12
9.4877e-12
9.01979e-12
8.67601e-12
8.33501e-12
8.12844e-12
7.90404e-12
7.71552e-12
7.54594e-12
7.40059e-12
7.25376e-12
7.13452e-12
6.99486e-12
6.88555e-12
6.74828e-12
6.6532e-12
6.51524e-12
6.43246e-12
6.29771e-12
6.22687e-12
6.08519e-12
6.03403e-12
5.93804e-12
5.94823e-12
5.79615e-12
5.67083e-12
5.46077e-12
5.45012e-12
5.38114e-12
5.44343e-12
5.36077e-12
5.42364e-12
5.34927e-12
5.41211e-12
5.3427e-12
5.4081e-12
5.33419e-12
5.39953e-12
5.32973e-12
5.37977e-12
5.32302e-12
5.3791e-12
5.31847e-12
5.35876e-12
5.30689e-12
5.3333e-12
5.26527e-12
5.2617e-12
5.19441e-12
5.14568e-12
5.02536e-12
4.95472e-12
4.83813e-12
4.72404e-12
4.45414e-12
4.32181e-12
3.99575e-12
)
;

boundaryField
{
    top
    {
        type            zeroGradient;
    }
    bottom
    {
        type            zeroGradient;
    }
    rotatingWall
    {
        type            zeroGradient;
    }
    wall
    {
        type            zeroGradient;
    }
    frontAndBack
    {
        type            empty;
    }
}


// ************************************************************************* //
