/*--------------------------------*- C++ -*----------------------------------*\
| =========                 |                                                 |
| \\      /  F ield         | OpenFOAM: The Open Source CFD Toolbox           |
|  \\    /   O peration     | Version:  5.0                                   |
|   \\  /    A nd           | Web:      www.OpenFOAM.org                      |
|    \\/     M anipulation  |                                                 |
\*---------------------------------------------------------------------------*/
FoamFile
{
    version     2.0;
    format      ascii;
    class       volScalarField;
    location    "1.7";
    object      p;
}
// * * * * * * * * * * * * * * * * * * * * * * * * * * * * * * * * * * * * * //

dimensions      [0 2 -2 0 0 0 0];

internalField   nonuniform List<scalar> 
50
(
18.9917
16.9734
14.9583
12.9369
10.9283
8.86036
6.85422
4.92179
2.95127
1.00052
18.9917
16.9734
14.9583
12.937
10.929
8.90383
6.89872
4.9246
2.95152
0.97505
18.9917
16.9734
14.9583
12.9372
10.929
8.91141
6.90274
4.92447
2.95169
0.976813
18.9917
16.9734
14.9582
12.9374
10.9284
8.90571
6.89539
4.9234
2.9517
0.979846
18.9916
16.9734
14.9582
12.9374
10.928
8.90061
6.89001
4.9224
2.95148
0.979976
)
;

boundaryField
{
    top
    {
        type            zeroGradient;
    }
    bottom
    {
        type            symmetryPlane;
    }
    inlet
    {
        type            fixedValue;
        value           uniform 20;
    }
    outlet
    {
        type            fixedValue;
        value           uniform 0;
    }
    frontAndBack
    {
        type            empty;
    }
}


// ************************************************************************* //
