/*--------------------------------*- C++ -*----------------------------------*\
| =========                 |                                                 |
| \\      /  F ield         | OpenFOAM: The Open Source CFD Toolbox           |
|  \\    /   O peration     | Version:  5.0                                   |
|   \\  /    A nd           | Web:      www.OpenFOAM.org                      |
|    \\/     M anipulation  |                                                 |
\*---------------------------------------------------------------------------*/
FoamFile
{
    version     2.0;
    format      ascii;
    class       volScalarField;
    location    "1.7";
    object      shearRate;
}
// * * * * * * * * * * * * * * * * * * * * * * * * * * * * * * * * * * * * * //

dimensions      [0 0 -1 0 0 0 0];

internalField   nonuniform List<scalar> 
50
(
2.01712
2.01698
2.0175
2.01692
2.03381
2.04639
3.80646
3.90139
3.93031
3.98237
6.05138
6.05093
6.0525
6.05001
6.08078
6.06183
7.70965
7.83463
7.8712
7.93248
10.0856
10.0848
10.0875
10.082
10.1044
10.0743
9.83519
9.84554
9.85523
9.86283
14.1199
14.1187
14.1225
14.1135
14.1292
14.0905
13.8408
13.799
13.7997
13.7888
18.1543
18.1524
18.1579
18.1446
18.1612
18.1176
17.8303
17.7439
17.7419
17.7173
)
;

boundaryField
{
    top
    {
        type            zeroGradient;
    }
    bottom
    {
        type            symmetryPlane;
    }
    inlet
    {
        type            zeroGradient;
    }
    outlet
    {
        type            zeroGradient;
    }
    frontAndBack
    {
        type            empty;
    }
}


// ************************************************************************* //
