/*--------------------------------*- C++ -*----------------------------------*\
| =========                 |                                                 |
| \\      /  F ield         | OpenFOAM: The Open Source CFD Toolbox           |
|  \\    /   O peration     | Version:  5.0                                   |
|   \\  /    A nd           | Web:      www.OpenFOAM.org                      |
|    \\/     M anipulation  |                                                 |
\*---------------------------------------------------------------------------*/
FoamFile
{
    version     2.0;
    format      ascii;
    class       surfaceScalarField;
    location    "340";
    object      phi;
}
// * * * * * * * * * * * * * * * * * * * * * * * * * * * * * * * * * * * * * //

dimensions      [0 3 -1 0 0 0 0];

internalField   nonuniform List<scalar> 
3052
(
1.28624e-23
-1.93774e-23
5.24502e-23
-3.97234e-23
1.12956e-22
-6.0628e-23
1.86946e-22
-7.40951e-23
2.72571e-22
-8.57202e-23
3.69591e-22
-9.71035e-23
4.74356e-22
-1.04842e-22
5.85177e-22
-1.10897e-22
7.0078e-22
-1.15676e-22
8.19398e-22
-1.18687e-22
9.39466e-22
-1.20134e-22
1.05971e-21
-1.20307e-22
1.1789e-21
-1.1925e-22
1.2958e-21
-1.16963e-22
1.40934e-21
-1.13597e-22
1.51852e-21
-1.09232e-22
1.62239e-21
-1.03917e-22
1.72009e-21
-9.77566e-23
1.81087e-21
-9.08151e-23
1.89401e-21
-8.31871e-23
1.9689e-21
-7.4921e-23
2.03499e-21
-6.61235e-23
2.0918e-21
-5.68402e-23
2.13876e-21
-4.69745e-23
2.17581e-21
-3.70721e-23
2.20296e-21
-2.71676e-23
2.21944e-21
-1.6489e-23
2.22495e-21
-5.51208e-24
2.21959e-21
5.3692e-24
2.20328e-21
1.63191e-23
2.17629e-21
2.70149e-23
2.13939e-21
3.69285e-23
2.09256e-21
4.68624e-23
2.03589e-21
5.67132e-23
1.96993e-21
6.60047e-23
1.8952e-21
7.47792e-23
1.81216e-21
8.30951e-23
1.72152e-21
9.06953e-23
1.62391e-21
9.76705e-23
1.52013e-21
1.0384e-22
1.41103e-21
1.0916e-22
1.29758e-21
1.13506e-22
1.18073e-21
1.16914e-22
1.0616e-21
1.19186e-22
9.41364e-22
1.20302e-22
8.21308e-22
1.20125e-22
7.02772e-22
1.18604e-22
5.87249e-22
1.15598e-22
4.76265e-22
1.11065e-22
3.71567e-22
1.04766e-22
2.75065e-22
9.65795e-23
1.8877e-22
8.63856e-23
1.14895e-22
7.39499e-23
5.60077e-23
5.89755e-23
1.6784e-23
3.92914e-23
1.67936e-23
1.30679e-23
-3.25743e-23
4.86798e-23
-7.57184e-23
1.00676e-22
-1.12959e-22
1.68707e-22
-1.42426e-22
2.49737e-22
-1.67015e-22
3.39136e-22
-1.8675e-22
4.36438e-22
-2.0238e-22
5.39965e-22
-2.14648e-22
6.47568e-22
-2.23494e-22
7.57914e-22
-2.2924e-22
8.69784e-22
-2.32201e-22
9.81824e-22
-2.32535e-22
1.09278e-21
-2.30389e-22
1.20162e-21
-2.25971e-22
1.30732e-21
-2.19465e-22
1.40892e-21
-2.10993e-22
1.50558e-21
-2.0072e-22
1.5965e-21
-1.88808e-22
1.68095e-21
-1.75389e-22
1.75827e-21
-1.60615e-22
1.82788e-21
-1.44628e-22
1.88925e-21
-1.27582e-22
1.94195e-21
-1.09606e-22
1.98578e-21
-9.08611e-23
2.02052e-21
-7.18543e-23
2.04568e-21
-5.23627e-23
2.06107e-21
-3.18838e-23
2.06631e-21
-1.07477e-23
2.06123e-21
1.04799e-23
2.04597e-21
3.16317e-23
2.02091e-21
5.21402e-23
1.9863e-21
7.16297e-23
1.94263e-21
9.06429e-23
1.89008e-21
1.0939e-22
1.82883e-21
1.27395e-22
1.75933e-21
1.44434e-22
1.68214e-21
1.60446e-22
1.59778e-21
1.75217e-22
1.50697e-21
1.88656e-22
1.41041e-21
2.00572e-22
1.30888e-21
2.10866e-22
1.20322e-21
2.19345e-22
1.09444e-21
2.25887e-22
9.83515e-22
2.30301e-22
8.71562e-22
2.32459e-22
7.59741e-22
2.32151e-22
6.49351e-22
2.29219e-22
5.4175e-22
2.23432e-22
4.38453e-22
2.14577e-22
3.41099e-22
2.02372e-22
2.5134e-22
1.86593e-22
1.71223e-22
1.66728e-22
1.0325e-22
1.42197e-22
5.01817e-23
1.12252e-22
1.43312e-23
7.53785e-23
3.11366e-23
9.91525e-24
-4.26066e-23
4.1549e-23
-1.07603e-22
8.94961e-23
-1.61133e-22
1.51785e-22
-2.04923e-22
2.2495e-22
-2.40379e-22
3.07722e-22
-2.69707e-22
3.97862e-22
-2.92694e-22
4.93468e-22
-3.10422e-22
5.93117e-22
-3.233e-22
6.95436e-22
-3.31707e-22
7.99071e-22
-3.35977e-22
9.0281e-22
-3.36409e-22
1.00562e-21
-3.33326e-22
1.10646e-21
-3.26931e-22
1.20435e-21
-3.17471e-22
1.29844e-21
-3.0519e-22
1.38795e-21
-2.90323e-22
1.47211e-21
-2.73056e-22
1.55027e-21
-2.53633e-22
1.62184e-21
-2.32252e-22
1.68628e-21
-2.09132e-22
1.74312e-21
-1.84467e-22
1.79197e-21
-1.58499e-22
1.83256e-21
-1.31473e-22
1.86441e-21
-1.03727e-22
1.8872e-21
-7.51646e-23
1.90097e-21
-4.56441e-23
1.90563e-21
-1.53959e-23
1.90107e-21
1.5058e-23
1.88743e-21
4.53064e-23
1.86478e-21
7.48427e-23
1.83304e-21
1.03422e-22
1.79256e-21
1.3119e-22
1.74382e-21
1.58217e-22
1.6871e-21
1.84196e-22
1.62276e-21
2.08872e-22
1.55129e-21
2.32016e-22
1.47321e-21
2.53409e-22
1.38914e-21
2.72851e-22
1.29969e-21
2.90135e-22
1.20567e-21
3.05022e-22
1.10783e-21
3.17317e-22
1.00706e-21
3.26798e-22
9.04277e-22
3.33231e-22
8.0054e-22
3.3635e-22
6.96933e-22
3.35927e-22
5.94653e-22
3.31665e-22
4.95005e-22
3.23251e-22
3.99391e-22
3.10401e-22
3.09263e-22
2.92679e-22
2.2655e-22
2.69489e-22
1.5312e-22
2.40391e-22
9.09205e-23
2.04562e-22
4.26964e-23
1.60747e-22
1.14239e-23
1.06779e-22
4.25701e-23
9.56004e-24
-5.22147e-23
3.68572e-23
-1.35041e-22
7.92495e-23
-2.0366e-22
1.35079e-22
-2.60886e-22
2.02101e-22
-3.07529e-22
2.77477e-22
-3.45208e-22
3.59895e-22
-3.75232e-22
4.47646e-22
-3.98283e-22
5.39172e-22
-4.14928e-22
6.33178e-22
-4.25809e-22
7.28495e-22
-4.31385e-22
8.23972e-22
-4.31972e-22
9.18539e-22
-4.27973e-22
1.01128e-21
-4.19747e-22
1.10133e-21
-4.07588e-22
1.18789e-21
-3.91803e-22
1.27019e-21
-3.7268e-22
1.3476e-21
-3.50505e-22
1.41948e-21
-3.25552e-22
1.48529e-21
-2.98093e-22
1.54453e-21
-2.68399e-22
1.59679e-21
-2.36747e-22
1.64168e-21
-2.03413e-22
1.67888e-21
-1.6868e-22
1.70798e-21
-1.32827e-22
1.72876e-21
-9.59404e-23
1.74122e-21
-5.80937e-23
1.74541e-21
-1.95752e-23
1.74133e-21
1.91542e-23
1.72897e-21
5.76908e-23
1.70828e-21
9.55532e-23
1.67927e-21
1.32455e-22
1.64218e-21
1.68311e-22
1.59737e-21
2.03066e-22
1.54519e-21
2.36414e-22
1.48602e-21
2.68092e-22
1.42029e-21
2.97796e-22
1.34847e-21
3.25283e-22
1.27114e-21
3.50253e-22
1.1889e-21
3.72451e-22
1.1024e-21
3.91603e-22
1.01238e-21
4.07427e-22
9.19664e-22
4.19611e-22
8.25122e-22
4.27878e-22
7.29686e-22
4.31899e-22
6.34392e-22
4.31334e-22
5.40367e-22
4.25818e-22
4.48793e-22
4.1497e-22
3.61042e-22
3.98274e-22
2.78667e-22
3.75212e-22
2.03083e-22
3.45248e-22
1.3607e-22
3.07524e-22
8.01473e-23
2.60678e-22
3.74026e-23
2.036e-22
1.00681e-23
1.343e-22
5.26461e-23
8.93064e-24
-6.11828e-23
3.20542e-23
-1.58231e-22
7.02917e-23
-2.41972e-22
1.20062e-22
-3.10735e-22
1.79989e-22
-3.6754e-22
2.48132e-22
-4.13436e-22
3.22811e-22
-4.49993e-22
4.02439e-22
-4.77987e-22
4.85687e-22
-4.98246e-22
5.71324e-22
-5.11513e-22
6.58135e-22
-5.18258e-22
7.45113e-22
-5.19007e-22
8.31333e-22
-5.14243e-22
9.15899e-22
-5.04358e-22
9.97999e-22
-4.89728e-22
1.07691e-21
-4.70745e-22
1.15194e-21
-4.47742e-22
1.22249e-21
-4.21079e-22
1.288e-21
-3.91076e-22
1.34796e-21
-3.58073e-22
1.40194e-21
-3.22385e-22
1.44953e-21
-2.84347e-22
1.49038e-21
-2.44266e-22
1.52419e-21
-2.02479e-22
1.55063e-21
-1.59265e-22
1.56955e-21
-1.14854e-22
1.58091e-21
-6.94401e-23
1.58472e-21
-2.33762e-23
1.58098e-21
2.29142e-23
1.5697e-21
6.89847e-23
1.55086e-21
1.14406e-22
1.52449e-21
1.58836e-22
1.49075e-21
2.02065e-22
1.44996e-21
2.4387e-22
1.40243e-21
2.83963e-22
1.34852e-21
3.22024e-22
1.28861e-21
3.57736e-22
1.22316e-21
3.90765e-22
1.15265e-21
4.208e-22
1.07766e-21
4.475e-22
9.98786e-22
4.70533e-22
9.1673e-22
4.89551e-22
8.32192e-22
5.04223e-22
7.45996e-22
5.14154e-22
6.59013e-22
5.18967e-22
5.72194e-22
5.18249e-22
4.86567e-22
5.11544e-22
4.03325e-22
4.98309e-22
3.23674e-22
4.78058e-22
2.48866e-22
4.50141e-22
1.80639e-22
4.13575e-22
1.20803e-22
3.67509e-22
7.06291e-23
3.10944e-22
3.24303e-23
2.42006e-22
8.30724e-24
1.58481e-22
6.09591e-23
7.12805e-24
-6.83119e-23
2.82509e-23
-1.79393e-22
6.14717e-23
-2.75236e-22
1.05684e-22
-3.55001e-22
1.58921e-22
-4.20837e-22
2.19747e-22
-4.74325e-22
2.86556e-22
-5.16865e-22
3.5797e-22
-5.49462e-22
4.32768e-22
-5.731e-22
5.09777e-22
-5.88574e-22
5.87935e-22
-5.96464e-22
6.66307e-22
-5.97422e-22
7.44007e-22
-5.91981e-22
8.20221e-22
-5.80604e-22
8.94231e-22
-5.63765e-22
9.65357e-22
-5.41894e-22
1.033e-21
-5.154e-22
1.09658e-21
-4.84681e-22
1.15562e-21
-4.50125e-22
1.20965e-21
-4.1211e-22
1.25827e-21
-3.71013e-22
1.30112e-21
-3.27198e-22
1.33789e-21
-2.81034e-22
1.36828e-21
-2.32874e-22
1.39209e-21
-1.83059e-22
1.40913e-21
-1.3189e-22
1.41938e-21
-7.96766e-23
1.42281e-21
-2.67957e-23
1.41943e-21
2.63105e-23
1.40923e-21
7.91943e-23
1.39223e-21
1.31416e-22
1.36848e-21
1.82595e-22
1.33813e-21
2.32423e-22
1.30141e-21
2.80598e-22
1.2586e-21
3.26784e-22
1.21002e-21
3.70621e-22
1.15603e-21
4.11749e-22
1.09702e-21
4.49794e-22
1.03347e-21
4.84385e-22
9.6587e-22
5.15143e-22
8.94772e-22
5.4168e-22
8.20781e-22
5.63597e-22
7.44583e-22
5.80483e-22
6.66902e-22
5.91903e-22
5.88538e-22
5.97405e-22
5.10374e-22
5.96489e-22
4.33381e-22
5.88621e-22
3.58544e-22
5.73246e-22
2.8705e-22
5.49638e-22
2.20309e-22
5.16983e-22
1.5947e-22
4.74536e-22
1.05901e-22
4.21155e-22
6.17604e-23
3.55208e-22
2.85379e-23
2.75262e-22
7.59744e-24
1.79556e-22
6.85613e-23
6.2754e-24
-7.46073e-23
2.45326e-23
-1.97687e-22
5.34443e-23
-3.04192e-22
9.20034e-23
-3.93609e-22
1.38677e-22
-4.67564e-22
1.92132e-22
-5.27837e-22
2.5103e-22
-5.75821e-22
3.14166e-22
-6.12655e-22
3.80392e-22
-6.39381e-22
4.48634e-22
-6.56868e-22
5.1798e-22
-6.65855e-22
5.87555e-22
-6.67039e-22
6.56553e-22
-6.61014e-22
7.2426e-22
-6.48343e-22
7.90018e-22
-6.2955e-22
8.53218e-22
-6.05118e-22
9.13317e-22
-5.75518e-22
9.69814e-22
-5.41195e-22
1.02226e-21
-5.02588e-22
1.07026e-21
-4.60115e-22
1.11343e-21
-4.142e-22
1.15148e-21
-3.65248e-22
1.18411e-21
-3.13667e-22
1.21108e-21
-2.59847e-22
1.2322e-21
-2.04178e-22
1.24734e-21
-1.47025e-22
1.25645e-21
-8.87721e-23
1.2595e-21
-2.98345e-23
1.25648e-21
2.93375e-23
1.24741e-21
8.82817e-23
1.2323e-21
1.46544e-22
1.2112e-21
2.03705e-22
1.18425e-21
2.59388e-22
1.15164e-21
3.13223e-22
1.11362e-21
3.64827e-22
1.07046e-21
4.13803e-22
1.02249e-21
4.59748e-22
9.70055e-22
5.02254e-22
9.13577e-22
5.40899e-22
8.53498e-22
5.75263e-22
7.90316e-22
6.0491e-22
7.24577e-22
6.2939e-22
6.56886e-22
6.48233e-22
5.87897e-22
6.60955e-22
5.18337e-22
6.67031e-22
4.48991e-22
6.6591e-22
3.80714e-22
6.56977e-22
3.14503e-22
6.3953e-22
2.51393e-22
6.12843e-22
1.9237e-22
5.76103e-22
1.38834e-22
5.28142e-22
9.22858e-23
4.67794e-22
5.36452e-23
3.93904e-22
2.44375e-23
3.04623e-22
6.23366e-24
1.9777e-22
7.47981e-23
5.516e-24
-8.01284e-23
2.09049e-23
-2.13128e-22
4.57468e-23
-3.29082e-22
7.88154e-23
-4.26727e-22
1.19037e-22
-5.07838e-22
1.6523e-22
-5.74084e-22
2.16227e-22
-6.26875e-22
2.70988e-22
-6.67472e-22
3.28525e-22
-6.96971e-22
3.87898e-22
-7.16291e-22
4.48283e-22
-7.26285e-22
5.08895e-22
-7.27693e-22
5.69038e-22
-7.21193e-22
6.28076e-22
-7.07413e-22
6.8542e-22
-6.86923e-22
7.40541e-22
-6.60265e-22
7.92959e-22
-6.27958e-22
8.42235e-22
-5.90491e-22
8.87973e-22
-5.48342e-22
9.29822e-22
-5.01978e-22
9.67466e-22
-4.51855e-22
1.00063e-21
-3.98417e-22
1.02906e-21
-3.42106e-22
1.05256e-21
-2.83354e-22
1.07098e-21
-2.2259e-22
1.08419e-21
-1.60232e-22
1.09213e-21
-9.67113e-23
1.09478e-21
-3.24769e-23
1.09214e-21
3.19966e-23
1.0842e-21
9.62336e-23
1.071e-21
1.59762e-22
1.0526e-21
2.2213e-22
1.0291e-21
2.82908e-22
1.00067e-21
3.41675e-22
9.67517e-22
3.98007e-22
9.29881e-22
4.51469e-22
8.8804e-22
5.01621e-22
8.42312e-22
5.48019e-22
7.93045e-22
5.90205e-22
7.40636e-22
6.27715e-22
6.85523e-22
6.60069e-22
6.2819e-22
6.86774e-22
5.69163e-22
7.07314e-22
5.09026e-22
7.21149e-22
4.48415e-22
7.27706e-22
3.88037e-22
7.26352e-22
3.28675e-22
7.16406e-22
2.71135e-22
6.9715e-22
2.16326e-22
6.67722e-22
1.65376e-22
6.27123e-22
1.19223e-22
5.7438e-22
7.88223e-23
5.08255e-22
4.57216e-23
4.27079e-22
2.10156e-23
3.29318e-22
5.53807e-24
2.13344e-22
8.03388e-23
4.53984e-24
-8.4695e-23
1.74785e-23
-2.26111e-22
3.82983e-23
-3.49949e-22
6.60899e-23
-4.54565e-22
9.99578e-23
-5.41752e-22
1.38911e-22
-6.13084e-22
1.82023e-22
-6.70033e-22
2.28396e-22
-7.13892e-22
2.77168e-22
-7.45787e-22
3.27559e-22
-7.66723e-22
3.78854e-22
-7.77619e-22
4.30378e-22
-7.79251e-22
4.81522e-22
-7.72369e-22
5.3174e-22
-7.57658e-22
5.8053e-22
-7.35738e-22
6.27435e-22
-7.07192e-22
6.72038e-22
-6.7258e-22
7.13965e-22
-6.32434e-22
7.52881e-22
-5.87273e-22
7.88485e-22
-5.37594e-22
8.20505e-22
-4.83884e-22
8.48707e-22
-4.26626e-22
8.72887e-22
-3.66291e-22
8.92878e-22
-3.03347e-22
9.0854e-22
-2.38253e-22
9.19781e-22
-1.71471e-22
9.26542e-22
-1.03467e-22
9.28795e-22
-3.47209e-23
9.26531e-22
3.42733e-23
9.19757e-22
1.03022e-22
9.08508e-22
1.71029e-22
8.92838e-22
2.3782e-22
8.72841e-22
3.02927e-22
8.48652e-22
3.65888e-22
8.20444e-22
4.26242e-22
7.88417e-22
4.83523e-22
7.52808e-22
5.37261e-22
7.13889e-22
5.86971e-22
6.7196e-22
6.32169e-22
6.27359e-22
6.72354e-22
5.80459e-22
7.07009e-22
5.31674e-22
7.35602e-22
4.81461e-22
7.57573e-22
4.30326e-22
7.72333e-22
3.78815e-22
7.79267e-22
3.27532e-22
7.7769e-22
2.77138e-22
7.6686e-22
2.28374e-22
7.45966e-22
1.82039e-22
7.14119e-22
1.38895e-22
6.70337e-22
9.99008e-23
6.13421e-22
6.61492e-23
5.42049e-22
3.83519e-23
4.54908e-22
1.74473e-23
3.50335e-22
4.44668e-24
2.26324e-22
8.47868e-23
3.65857e-24
-8.83579e-23
1.41744e-23
-2.36673e-22
3.10813e-23
-3.66896e-22
5.37e-23
-4.77221e-22
8.12873e-23
-5.69375e-22
1.13077e-22
-6.44909e-22
1.48327e-22
-7.05318e-22
1.86292e-22
-7.51892e-22
2.26265e-22
-7.85794e-22
2.67606e-22
-8.08094e-22
3.09711e-22
-8.19752e-22
3.52026e-22
-8.2159e-22
3.94046e-22
-8.14411e-22
4.35321e-22
-7.98954e-22
4.75428e-22
-7.75863e-22
5.13988e-22
-7.45768e-22
5.50657e-22
-7.09263e-22
5.8513e-22
-6.66919e-22
6.17123e-22
-6.19276e-22
6.4639e-22
-5.66868e-22
6.72708e-22
-5.10209e-22
6.95889e-22
-4.49812e-22
7.1576e-22
-3.86167e-22
7.32185e-22
-3.19774e-22
7.45055e-22
-2.51122e-22
7.54292e-22
-1.80706e-22
7.59848e-22
-1.09017e-22
7.61698e-22
-3.65617e-23
7.59829e-22
3.61531e-23
7.5425e-22
1.08613e-22
7.44985e-22
1.80308e-22
7.32088e-22
2.50733e-22
7.15639e-22
3.19394e-22
6.95747e-22
3.85801e-22
6.72548e-22
4.49462e-22
6.4621e-22
5.09885e-22
6.16929e-22
5.66567e-22
5.84923e-22
6.19004e-22
5.50443e-22
6.66678e-22
5.13768e-22
7.09059e-22
4.75206e-22
7.45603e-22
4.351e-22
7.75741e-22
3.93833e-22
7.98875e-22
3.51823e-22
8.1438e-22
3.09517e-22
8.21613e-22
2.67425e-22
8.19824e-22
2.26112e-22
8.08212e-22
1.86159e-22
7.85968e-22
1.48201e-22
7.52124e-22
1.12989e-22
7.05581e-22
8.12575e-23
6.45197e-22
5.36236e-23
5.69725e-22
3.1014e-23
4.77552e-22
1.41872e-23
3.67121e-22
3.71759e-24
2.36865e-22
8.85055e-23
2.84028e-24
-9.12202e-23
1.0969e-23
-2.44826e-22
2.40379e-23
-3.79991e-22
4.15552e-23
-4.94763e-22
6.29528e-23
-5.90796e-22
8.7658e-23
-6.69637e-22
1.15071e-22
-7.32754e-22
1.44616e-22
-7.81459e-22
1.75754e-22
-8.16952e-22
2.0798e-22
-8.40339e-22
2.40822e-22
-8.52612e-22
2.73833e-22
-8.54618e-22
3.0663e-22
-8.47222e-22
3.38857e-22
-8.31193e-22
3.70178e-22
-8.07195e-22
4.00289e-22
-7.75889e-22
4.28926e-22
-7.37906e-22
4.55844e-22
-6.93842e-22
4.80827e-22
-6.44263e-22
5.03679e-22
-5.89724e-22
5.24229e-22
-5.30762e-22
5.42321e-22
-4.67905e-22
5.57832e-22
-4.01678e-22
5.70653e-22
-3.32595e-22
5.80703e-22
-2.61169e-22
5.87915e-22
-1.87914e-22
5.9225e-22
-1.13346e-22
5.93682e-22
-3.7986e-23
5.92207e-22
3.7637e-23
5.87835e-22
1.12994e-22
5.8059e-22
1.87565e-22
5.70508e-22
2.60827e-22
5.57652e-22
3.32263e-22
5.42107e-22
4.0136e-22
5.23983e-22
4.67603e-22
5.03409e-22
5.30476e-22
4.80534e-22
5.8946e-22
4.55533e-22
6.44025e-22
4.286e-22
6.93631e-22
3.99953e-22
7.37728e-22
3.69835e-22
7.75744e-22
3.38515e-22
8.07085e-22
3.06293e-22
8.31123e-22
2.73504e-22
8.47196e-22
2.40511e-22
8.54633e-22
2.07691e-22
8.52672e-22
1.75488e-22
8.4045e-22
1.44372e-22
8.17111e-22
1.14878e-22
7.81641e-22
8.7517e-23
7.32984e-22
6.28129e-23
6.69922e-22
4.14694e-23
5.91071e-22
2.40191e-23
4.95016e-22
1.09525e-23
3.80268e-22
2.80531e-24
2.4497e-22
9.13109e-23
2.01926e-24
-9.32339e-23
7.80727e-24
-2.5063e-22
1.71288e-23
-3.89325e-22
2.9627e-23
-5.07273e-22
4.49032e-23
-6.06083e-22
6.25455e-23
-6.87288e-22
8.21317e-23
-7.5235e-22
1.03263e-22
-8.02599e-22
1.25554e-22
-8.39252e-22
1.48621e-22
-8.63414e-22
1.72143e-22
-8.76141e-22
1.95783e-22
-8.78264e-22
2.19286e-22
-8.70731e-22
2.42383e-22
-8.54294e-22
2.6483e-22
-8.29645e-22
2.86409e-22
-7.97471e-22
3.06931e-22
-7.58431e-22
3.2622e-22
-7.13132e-22
3.44122e-22
-6.62165e-22
3.60494e-22
-6.06095e-22
3.75216e-22
-5.45482e-22
3.88178e-22
-4.80866e-22
3.99291e-22
-4.12788e-22
4.08474e-22
-3.41774e-22
4.15668e-22
-2.68358e-22
4.20827e-22
-1.93067e-22
4.23925e-22
-1.16438e-22
4.24944e-22
-3.89997e-23
4.23879e-22
3.87075e-23
4.20732e-22
1.16148e-22
4.15522e-22
1.92782e-22
4.08281e-22
2.68076e-22
3.99056e-22
3.41497e-22
3.87907e-22
4.12519e-22
3.74907e-22
4.80613e-22
3.60152e-22
5.45243e-22
3.43748e-22
6.05876e-22
3.25822e-22
6.61964e-22
3.06512e-22
7.12954e-22
2.85976e-22
7.58278e-22
2.64388e-22
7.97346e-22
2.41939e-22
8.2955e-22
2.18846e-22
8.54232e-22
1.95357e-22
8.70702e-22
1.71736e-22
8.78272e-22
1.48235e-22
8.76192e-22
1.25206e-22
8.63492e-22
1.02968e-22
8.39369e-22
8.18617e-23
8.0277e-22
6.23022e-23
7.52543e-22
4.47561e-23
6.87479e-22
2.95549e-23
6.06298e-22
1.70504e-23
5.07521e-22
7.74172e-24
3.89515e-22
1.98736e-24
2.50772e-22
9.3298e-23
1.2112e-24
-9.44572e-23
4.70224e-24
-2.54114e-22
1.03161e-23
-3.94936e-22
1.78331e-23
-5.14786e-22
2.70226e-23
-6.15269e-22
3.7632e-23
-6.97895e-22
4.94136e-23
-7.64128e-22
6.21274e-23
-8.15311e-22
7.5563e-23
-8.52686e-22
8.94964e-23
-8.77344e-22
1.03599e-22
-8.90242e-22
1.17814e-22
-8.92476e-22
1.32001e-22
-8.84916e-22
1.45924e-22
-8.68214e-22
1.59422e-22
-8.4314e-22
1.72401e-22
-8.10447e-22
1.84746e-22
-7.70773e-22
1.96352e-22
-7.24734e-22
2.07122e-22
-6.72931e-22
2.16972e-22
-6.15941e-22
2.25825e-22
-5.54331e-22
2.33621e-22
-4.88655e-22
2.40297e-22
-4.19458e-22
2.45814e-22
-3.47283e-22
2.50134e-22
-2.72671e-22
2.53232e-22
-1.96158e-22
2.55084e-22
-1.18285e-22
2.55682e-22
-3.95942e-23
2.55025e-22
3.93686e-23
2.53116e-22
1.1806e-22
2.49968e-22
1.95934e-22
2.45597e-22
2.72451e-22
2.40028e-22
3.4707e-22
2.33301e-22
4.19251e-22
2.25463e-22
4.88457e-22
2.16569e-22
5.54143e-22
2.06685e-22
6.15766e-22
1.95885e-22
6.7277e-22
1.84256e-22
7.24591e-22
1.71893e-22
7.70648e-22
1.58904e-22
8.10343e-22
1.45402e-22
8.43058e-22
1.31485e-22
8.68157e-22
1.17309e-22
8.84885e-22
1.03114e-22
8.92472e-22
8.90495e-23
8.90263e-22
7.51541e-23
8.77399e-22
6.17475e-23
8.52776e-22
4.91014e-23
8.15408e-22
3.74194e-23
7.64241e-22
2.682e-23
6.98077e-22
1.7638e-23
6.15447e-22
1.02396e-23
5.14916e-22
4.72969e-24
3.95074e-22
1.24031e-24
2.54201e-22
9.45372e-23
4.2604e-25
-9.48678e-23
1.62263e-24
-2.55298e-22
3.54951e-24
-3.96846e-22
6.11808e-24
-5.17339e-22
9.24271e-24
-6.18377e-22
1.28435e-23
-7.01479e-22
1.68312e-23
-7.68101e-22
2.11133e-23
-8.19578e-22
2.55918e-23
-8.57149e-22
3.02361e-23
-8.81976e-22
3.50637e-23
-8.95057e-22
4.00724e-23
-8.97472e-22
4.48699e-23
-8.89702e-22
4.94482e-23
-8.72782e-22
5.39417e-23
-8.47623e-22
5.8291e-23
-8.14787e-22
6.24294e-23
-7.74903e-22
6.63187e-23
-7.28615e-22
6.99264e-23
-6.7653e-22
7.32248e-23
-6.19231e-22
7.61858e-23
-5.57283e-22
7.87894e-23
-4.91249e-22
8.10185e-23
-4.21676e-22
8.28581e-23
-3.49112e-22
8.42916e-23
-2.74095e-22
8.53122e-23
-1.97172e-22
8.59132e-23
-1.18881e-22
8.60928e-23
-3.97713e-23
8.58493e-23
3.96138e-23
8.51847e-23
1.18725e-22
8.41033e-23
1.97017e-22
8.26117e-23
2.73944e-22
8.07207e-23
3.48963e-22
7.844e-23
4.21533e-22
7.57893e-23
4.91109e-22
7.27823e-23
5.5715e-22
6.94469e-23
6.19103e-22
6.58053e-23
6.76412e-22
6.18893e-23
7.28507e-22
5.77307e-23
7.74806e-22
5.33707e-23
8.14702e-22
4.8872e-23
8.47556e-22
4.43001e-23
8.72727e-22
3.95165e-23
8.89665e-22
3.45321e-23
8.97455e-22
2.97335e-23
8.95058e-22
2.51292e-23
8.81991e-22
2.07253e-23
8.57175e-22
1.64909e-23
8.19642e-22
1.2506e-23
7.68195e-22
9.02481e-24
7.0154e-22
6.04632e-24
6.18435e-22
3.45374e-24
5.17475e-22
1.4913e-24
3.96955e-22
3.32654e-25
2.55384e-22
9.48683e-23
-3.64538e-25
-9.45064e-23
-1.43865e-24
-2.54186e-22
-3.19606e-24
-3.95056e-22
-5.57442e-24
-5.14928e-22
-8.49785e-24
-6.15422e-22
-1.18948e-23
-6.98052e-22
-1.5686e-23
-7.6428e-22
-1.97789e-23
-8.15457e-22
-2.40824e-23
-8.5282e-22
-2.8564e-23
-8.77469e-22
-3.32396e-23
-8.90358e-22
-3.81087e-23
-8.92581e-22
-4.27797e-23
-8.85011e-22
-4.72447e-23
-8.68297e-22
-5.16401e-23
-8.4321e-22
-5.59028e-23
-8.10507e-22
-5.99694e-23
-7.70821e-22
-6.37987e-23
-7.24771e-22
-6.73604e-23
-6.72955e-22
-7.06251e-23
-6.15953e-22
-7.35643e-23
-5.54331e-22
-7.6156e-23
-4.88644e-22
-7.83833e-23
-4.19437e-22
-8.02323e-23
-3.47252e-22
-8.16894e-23
-2.72629e-22
-8.27465e-23
-1.96107e-22
-8.33969e-23
-1.18227e-22
-8.36362e-23
-3.95291e-23
-8.34633e-23
3.9442e-23
-8.2879e-23
1.18141e-22
-8.18869e-23
1.96024e-22
-8.04911e-23
2.72547e-22
-7.86994e-23
3.47169e-22
-7.65246e-23
4.19355e-22
-7.39825e-23
4.88563e-22
-7.10898e-23
5.54253e-22
-6.78682e-23
6.15876e-22
-6.43415e-23
6.7288e-22
-6.05392e-23
7.24698e-22
-5.64944e-23
7.70753e-22
-5.22441e-23
8.10443e-22
-4.78532e-23
8.43154e-22
-4.33832e-23
8.68245e-22
-3.86972e-23
8.84968e-22
-3.38034e-23
8.92544e-22
-2.90889e-23
8.90324e-22
-2.45602e-23
8.77452e-22
-2.02346e-23
8.52823e-22
-1.60709e-23
8.1544e-22
-1.21377e-23
7.64257e-22
-8.72281e-24
6.98098e-22
-5.84667e-24
6.15491e-22
-3.30549e-24
5.14913e-22
-1.40086e-24
3.95064e-22
-3.09671e-25
2.54213e-22
9.45561e-23
-1.17682e-24
-9.3304e-23
-4.52751e-24
-2.50792e-22
-9.9674e-24
-3.89568e-22
-1.72968e-23
-5.07551e-22
-2.62907e-23
-6.06382e-22
-3.67091e-23
-6.87588e-22
-4.83036e-23
-7.52642e-22
-6.08364e-23
-8.02883e-22
-7.41019e-23
-8.39516e-22
-8.78764e-23
-8.63659e-22
-1.01831e-22
-8.7637e-22
-1.15913e-22
-8.78467e-22
-1.29982e-22
-8.70912e-22
-1.43797e-22
-8.54454e-22
-1.57199e-22
-8.29783e-22
-1.70095e-22
-7.97587e-22
-1.82371e-22
-7.58523e-22
-1.93918e-22
-7.13203e-22
-2.04643e-22
-6.62212e-22
-2.14456e-22
-6.06122e-22
-2.23288e-22
-5.45483e-22
-2.31071e-22
-4.80845e-22
-2.37753e-22
-4.12741e-22
-2.43282e-22
-3.4171e-22
-2.47626e-22
-2.68276e-22
-2.50755e-22
-1.92971e-22
-2.52655e-22
-1.16322e-22
-2.53311e-22
-3.88693e-23
-2.52723e-22
3.88557e-23
-2.50889e-22
1.16306e-22
-2.47823e-22
1.92955e-22
-2.43539e-22
2.6826e-22
-2.38071e-22
3.41696e-22
-2.31447e-22
4.12725e-22
-2.23718e-22
4.80826e-22
-2.1493e-22
5.45457e-22
-2.05159e-22
6.06093e-22
-1.94469e-22
6.62179e-22
-1.82952e-22
7.13167e-22
-1.70697e-22
7.58482e-22
-1.57816e-22
7.97544e-22
-1.44417e-22
8.29735e-22
-1.30599e-22
8.54405e-22
-1.16513e-22
8.70856e-22
-1.02407e-22
8.78412e-22
-8.84263e-23
8.76319e-22
-7.46122e-23
8.63595e-22
-6.12588e-23
8.39439e-22
-4.86777e-23
8.0284e-22
-3.71065e-23
7.52621e-22
-2.65549e-23
6.87499e-22
-1.73596e-23
6.06286e-22
-1.00801e-23
5.07561e-22
-4.71037e-24
3.8959e-22
-1.28208e-24
2.50779e-22
9.32708e-23
-1.95082e-24
-9.13457e-23
-7.62278e-24
-2.45046e-22
-1.67916e-23
-3.80331e-22
-2.91196e-23
-4.95158e-22
-4.42129e-23
-5.91225e-22
-6.16731e-23
-6.70068e-22
-8.10894e-23
-7.33169e-22
-1.0206e-22
-7.81859e-22
-1.24192e-22
-8.17333e-22
-1.47115e-22
-8.40689e-22
-1.70505e-22
-8.52936e-22
-1.94022e-22
-8.54909e-22
-2.17411e-22
-8.47484e-22
-2.40411e-22
-8.31419e-22
-2.62766e-22
-8.07392e-22
-2.84272e-22
-7.76051e-22
-3.04724e-22
-7.3804e-22
-3.23962e-22
-6.93939e-22
-3.41817e-22
-6.44331e-22
-3.58163e-22
-5.89754e-22
-3.7286e-22
-5.30764e-22
-3.85815e-22
-4.67874e-22
-3.96919e-22
-4.01619e-22
-4.06117e-22
-3.32502e-22
-4.13329e-22
-2.61051e-22
-4.18529e-22
-1.87766e-22
-4.21664e-22
-1.13179e-22
-4.22737e-22
-3.77944e-23
-4.21725e-22
3.78468e-23
-4.18656e-22
1.13233e-22
-4.13523e-22
1.87821e-22
-4.06375e-22
2.61104e-22
-3.97235e-22
3.32551e-22
-3.86183e-22
4.01662e-22
-3.73276e-22
4.67912e-22
-3.58628e-22
5.30795e-22
-3.42324e-22
5.89777e-22
-3.24506e-22
6.44341e-22
-3.05295e-22
6.93938e-22
-2.84865e-22
7.38027e-22
-2.63374e-22
7.76027e-22
-2.41025e-22
8.07353e-22
-2.1802e-22
8.31368e-22
-1.94622e-22
8.47422e-22
-1.71082e-22
8.54833e-22
-1.47653e-22
8.52839e-22
-1.24684e-22
8.40594e-22
-1.0254e-22
8.17247e-22
-8.15018e-23
7.81725e-22
-6.19098e-23
7.33005e-22
-4.44581e-23
6.69996e-22
-2.94558e-23
5.91172e-22
-1.69373e-23
4.94998e-22
-7.57484e-24
3.80197e-22
-1.89233e-24
2.44993e-22
9.1374e-23
-2.80329e-24
-8.85045e-23
-1.07982e-23
-2.36967e-22
-2.37293e-23
-3.67315e-22
-4.10905e-23
-4.77714e-22
-6.23369e-23
-5.69901e-22
-8.68781e-23
-6.45452e-22
-1.14138e-22
-7.05839e-22
-1.43543e-22
-7.52388e-22
-1.7455e-22
-7.86266e-22
-2.06648e-22
-8.08533e-22
-2.39375e-22
-8.20157e-22
-2.72276e-22
-8.21957e-22
-3.04979e-22
-8.14737e-22
-3.37114e-22
-7.99239e-22
-3.68356e-22
-7.7611e-22
-3.98397e-22
-7.45971e-22
-4.26976e-22
-7.09428e-22
-4.53842e-22
-6.67038e-22
-4.78787e-22
-6.19359e-22
-5.01607e-22
-5.66907e-22
-5.22136e-22
-5.10214e-22
-5.40221e-22
-4.49768e-22
-5.55734e-22
-3.86093e-22
-5.68564e-22
-3.19657e-22
-5.78628e-22
-2.50979e-22
-5.85864e-22
-1.8052e-22
-5.90234e-22
-1.08805e-22
-5.91716e-22
-3.63067e-23
-5.90299e-22
3.64276e-23
-5.8599e-22
1.08924e-22
-5.78809e-22
1.80634e-22
-5.68802e-22
2.51093e-22
-5.56025e-22
3.19765e-22
-5.40569e-22
3.86199e-22
-5.22532e-22
4.4986e-22
-5.02051e-22
5.10299e-22
-4.79266e-22
5.66971e-22
-4.54359e-22
6.19414e-22
-4.27517e-22
6.67068e-22
-3.98964e-22
7.09445e-22
-3.68933e-22
7.45958e-22
-3.37702e-22
7.76084e-22
-3.0556e-22
7.99184e-22
-2.72851e-22
8.14665e-22
-2.39925e-22
8.21856e-22
-2.07183e-22
8.20054e-22
-1.75048e-22
8.08393e-22
-1.43955e-22
7.86089e-22
-1.14497e-22
7.52237e-22
-8.73142e-23
7.05724e-22
-6.26291e-23
6.45221e-22
-4.11201e-23
5.69637e-22
-2.38544e-23
4.77615e-22
-1.10413e-23
3.67252e-22
-2.95151e-24
2.36864e-22
8.84177e-23
-3.60396e-24
-8.48791e-23
-1.40173e-23
-2.26446e-22
-3.07905e-23
-3.50438e-22
-5.32867e-23
-4.55122e-22
-8.07544e-23
-5.42343e-22
-1.12427e-22
-6.13694e-22
-1.47559e-22
-6.70626e-22
-1.85405e-22
-7.14467e-22
-2.25273e-22
-7.46328e-22
-2.66506e-22
-7.67235e-22
-3.08523e-22
-7.7808e-22
-3.50745e-22
-7.79679e-22
-3.92688e-22
-7.72744e-22
-4.33879e-22
-7.57999e-22
-4.73929e-22
-7.36018e-22
-5.1242e-22
-7.07438e-22
-5.49051e-22
-6.72763e-22
-5.83466e-22
-6.32589e-22
-6.15439e-22
-5.87359e-22
-6.44663e-22
-5.37654e-22
-6.70981e-22
-4.83877e-22
-6.9413e-22
-4.26598e-22
-7.14019e-22
-3.66193e-22
-7.30432e-22
-3.03229e-22
-7.43341e-22
-2.38065e-22
-7.52581e-22
-1.71269e-22
-7.58189e-22
-1.03198e-22
-7.60045e-22
-3.44453e-23
-7.58239e-22
3.46155e-23
-7.52683e-22
1.03368e-22
-7.43501e-22
1.71441e-22
-7.30643e-22
2.38232e-22
-7.14287e-22
3.03395e-22
-6.94441e-22
3.66346e-22
-6.71345e-22
4.26745e-22
-6.45061e-22
4.84001e-22
-6.15883e-22
5.37767e-22
-5.83933e-22
5.87443e-22
-5.49555e-22
6.32655e-22
-5.12933e-22
6.72792e-22
-4.74468e-22
7.0745e-22
-4.34413e-22
7.35989e-22
-3.93231e-22
7.5795e-22
-3.51269e-22
7.72659e-22
-3.09046e-22
7.79578e-22
-2.66984e-22
7.77928e-22
-2.25721e-22
7.67073e-22
-1.85849e-22
7.46168e-22
-1.47967e-22
7.14246e-22
-1.12631e-22
6.70331e-22
-8.09643e-23
6.13499e-22
-5.36979e-23
5.42217e-22
-3.0977e-23
4.54831e-22
-1.39369e-23
3.50147e-22
-3.51979e-24
2.26328e-22
8.48927e-23
-4.49544e-24
-8.03376e-23
-1.73487e-23
-2.13478e-22
-3.80736e-23
-3.29603e-22
-6.57665e-23
-4.27324e-22
-9.95362e-23
-5.08472e-22
-1.38417e-22
-5.7472e-22
-1.81448e-22
-6.27505e-22
-2.27745e-22
-6.68087e-22
-2.76443e-22
-6.9755e-22
-3.26769e-22
-7.16837e-22
-3.77985e-22
-7.26794e-22
-4.29448e-22
-7.28157e-22
-4.80523e-22
-7.21608e-22
-5.30694e-22
-7.0778e-22
-5.79421e-22
-6.87239e-22
-6.26287e-22
-6.60534e-22
-6.70839e-22
-6.28168e-22
-7.12747e-22
-5.90653e-22
-7.51622e-22
-5.48449e-22
-7.87217e-22
-5.0204e-22
-8.19207e-22
-4.51858e-22
-8.47416e-22
-3.98379e-22
-8.71578e-22
-3.42009e-22
-8.91583e-22
-2.83221e-22
-9.07238e-22
-2.22394e-22
-9.18506e-22
-1.60004e-22
-9.25271e-22
-9.64214e-23
-9.27566e-22
-3.21608e-23
-9.25317e-22
3.23734e-23
-9.18597e-22
9.66323e-23
-9.07372e-22
1.60219e-22
-8.91763e-22
2.22601e-22
-8.71801e-22
2.83429e-22
-8.4768e-22
3.42196e-22
-8.19513e-22
3.98565e-22
-7.87559e-22
4.52012e-22
-7.52002e-22
5.02189e-22
-7.13153e-22
5.48551e-22
-6.71272e-22
5.90746e-22
-6.26737e-22
6.2821e-22
-5.79885e-22
6.60562e-22
-5.31163e-22
6.87214e-22
-4.80998e-22
7.07744e-22
-4.29915e-22
7.21516e-22
-3.78435e-22
7.28043e-22
-3.27206e-22
7.26639e-22
-2.7687e-22
7.16674e-22
-2.28085e-22
6.97292e-22
-1.81746e-22
6.67859e-22
-1.38828e-22
6.27317e-22
-9.98839e-23
5.74422e-22
-6.57568e-23
5.08058e-22
-3.81786e-23
4.27125e-22
-1.76627e-23
3.2949e-22
-4.72117e-24
2.13342e-22
8.01669e-23
-5.4067e-24
-7.4901e-23
-2.08086e-23
-1.97952e-22
-4.55872e-23
-3.0471e-22
-7.86344e-23
-3.94165e-22
-1.18815e-22
-4.68186e-22
-1.64953e-22
-5.28478e-22
-2.15913e-22
-5.76446e-22
-2.70646e-22
-6.13258e-22
-3.2813e-22
-6.39977e-22
-3.87469e-22
-6.57412e-22
-4.47802e-22
-6.66383e-22
-5.08387e-22
-6.67498e-22
-5.68476e-22
-6.61454e-22
-6.27488e-22
-6.48706e-22
-6.84781e-22
-6.29894e-22
-7.39895e-22
-6.0537e-22
-7.92258e-22
-5.75765e-22
-8.41534e-22
-5.41337e-22
-8.8722e-22
-5.02733e-22
-9.29086e-22
-4.60144e-22
-9.66679e-22
-4.14245e-22
-9.99868e-22
-3.65168e-22
-1.02825e-21
-3.13613e-22
-1.0518e-21
-2.59658e-22
-1.07016e-21
-2.04025e-22
-1.08343e-21
-1.46732e-22
-1.09133e-21
-8.85238e-23
-1.09405e-21
-2.9439e-23
-1.09135e-21
2.96748e-23
-1.08349e-21
8.87648e-23
-1.07025e-21
1.46959e-22
-1.05194e-21
2.04264e-22
-1.02841e-21
2.59869e-22
-1.00008e-21
3.13837e-22
-9.66905e-22
3.65345e-22
-9.29371e-22
4.14437e-22
-8.87502e-22
4.60272e-22
-8.41871e-22
5.02878e-22
-7.92584e-22
5.4141e-22
-7.40271e-22
5.75852e-22
-6.85134e-22
6.05376e-22
-6.27884e-22
6.29917e-22
-5.68834e-22
6.48639e-22
-5.08775e-22
6.61403e-22
-4.48159e-22
6.6737e-22
-3.87843e-22
6.66256e-22
-3.28433e-22
6.57192e-22
-2.71008e-22
6.39809e-22
-2.16254e-22
6.13002e-22
-1.65125e-22
5.76093e-22
-1.18945e-22
5.28191e-22
-7.90423e-23
4.68011e-22
-4.58332e-23
3.93845e-22
-2.07111e-23
3.04321e-22
-5.22096e-24
1.97746e-22
7.49422e-23
-6.30838e-24
-6.85435e-23
-2.44441e-23
-1.79697e-22
-5.34226e-23
-2.75607e-22
-9.19787e-23
-3.55489e-22
-1.38665e-22
-4.21382e-22
-1.92136e-22
-4.74889e-22
-2.51059e-22
-5.17409e-22
-3.14175e-22
-5.50034e-22
-3.80393e-22
-5.73655e-22
-4.48628e-22
-5.89079e-22
-5.17974e-22
-5.96946e-22
-5.8751e-22
-5.97877e-22
-6.56515e-22
-5.92372e-22
-7.24185e-22
-5.80963e-22
-7.89949e-22
-5.64068e-22
-8.53102e-22
-5.42158e-22