/*--------------------------------*- C++ -*----------------------------------*\
| =========                 |                                                 |
| \\      /  F ield         | OpenFOAM: The Open Source CFD Toolbox           |
|  \\    /   O peration     | Version:  5.0                                   |
|   \\  /    A nd           | Web:      www.OpenFOAM.org                      |
|    \\/     M anipulation  |                                                 |
\*---------------------------------------------------------------------------*/
FoamFile
{
    version     2.0;
    format      ascii;
    class       surfaceScalarField;
    location    "340";
    object      phi;
}
// * * * * * * * * * * * * * * * * * * * * * * * * * * * * * * * * * * * * * //

dimensions      [0 3 -1 0 0 0 0];

internalField   nonuniform List<scalar> 
19660
(
1.83416e-08
-1.66219e-09
-1.65501e-08
2.15089e-08
-2.0475e-09
-1.11996e-09
2.26235e-08
-1.87426e-09
7.59559e-10
2.25836e-08
-1.55838e-09
1.59808e-09
2.15796e-08
-1.21217e-09
2.21606e-09
1.99203e-08
-8.16522e-10
2.47564e-09
1.76717e-08
-3.25862e-10
2.57437e-09
1.473e-08
2.4808e-10
2.69351e-09
1.1039e-08
7.92846e-10
2.89806e-09
6.74711e-09
1.1445e-09
3.14722e-09
2.37144e-09
9.18262e-10
3.45728e-09
-9.48222e-10
-6.2545e-10
3.94499e-09
-1.80707e-09
-3.4908e-09
4.34951e-09
-5.53784e-09
3.7307e-09
1.86995e-08
-1.17868e-09
-1.91831e-08
2.29366e-08
-2.06559e-09
-4.21927e-09
2.52845e-08
-2.31851e-09
-1.90388e-09
2.65674e-08
-2.3364e-09
-5.05125e-10
2.68577e-08
-2.16111e-09
6.58325e-10
2.65377e-08
-1.85839e-09
1.36161e-09
2.58256e-08
-1.45103e-09
1.83713e-09
2.47242e-08
-9.49062e-10
2.29832e-09
2.3111e-08
-3.93884e-10
2.79978e-09
2.08391e-08
9.38472e-11
3.32238e-09
1.76906e-08
1.90566e-10
3.87602e-09
1.31035e-08
-4.5886e-10
4.4203e-09
6.75495e-09
-2.27724e-09
5.13479e-09
-4.03018e-09
5.2472e-09
1.88688e-08
-1.24193e-09
-1.88056e-08
2.29711e-08
-2.07557e-09
-4.09262e-09
2.5266e-08
-2.45953e-09
-2.15409e-09
2.65747e-08
-2.65781e-09
-9.8754e-10
2.69594e-08
-2.66311e-09
1.17129e-10
2.68082e-08
-2.51411e-09
8.06666e-10
2.63199e-08
-2.24684e-09
1.28392e-09
2.54752e-08
-1.87495e-09
1.77036e-09
2.41734e-08
-1.41839e-09
2.32617e-09
2.22595e-08
-9.49287e-10
2.95687e-09
1.93877e-08
-6.19949e-10
3.68221e-09
1.50671e-08
-6.46044e-10
4.50766e-09
8.45828e-09
-1.1892e-09
5.52063e-09
-1.32991e-09
5.75795e-09
1.87806e-08
-1.28144e-09
-1.87412e-08
2.28303e-08
-2.13538e-09
-3.99008e-09
2.51361e-08
-2.61514e-09
-2.15037e-09
2.64843e-08
-2.9152e-09
-1.09105e-09
2.69098e-08
-3.01159e-09
-7.72122e-11
2.68035e-08
-2.95107e-09
5.43052e-10
2.63534e-08
-2.7702e-09
9.73348e-10
2.55084e-08
-2.47934e-09
1.44922e-09
2.4128e-08
-2.08018e-09
2.04208e-09
2.20154e-08
-1.6122e-09
2.7755e-09
1.88649e-08
-1.15299e-09
3.68339e-09
1.42785e-08
-8.11084e-10
4.75137e-09
7.67061e-09
-5.20632e-10
5.93928e-09
2.42164e-10
6.09851e-09
1.86623e-08
-1.32348e-09
-1.86203e-08
2.26198e-08
-2.22604e-09
-3.867e-09
2.49175e-08
-2.75088e-09
-2.16211e-09
2.6271e-08
-3.07291e-09
-1.19597e-09
2.67142e-08
-3.18986e-09
-2.65109e-10
2.66469e-08
-3.15871e-09
2.74781e-10
2.62384e-08
-3.01808e-09
6.56319e-10
2.5417e-08
-2.76741e-09
1.10935e-09
2.40145e-08
-2.40386e-09
1.72621e-09
2.17904e-08
-1.94677e-09
2.5586e-09
1.84215e-08
-1.43116e-09
3.6471e-09
1.35915e-08
-9.11761e-10
4.93077e-09
7.06798e-09
-2.24941e-10
6.22782e-09
1.01941e-09
6.29076e-09
1.85246e-08
-1.38011e-09
-1.8468e-08
2.23811e-08
-2.31768e-09
-3.76492e-09
2.46686e-08
-2.83016e-09
-2.20843e-09
2.60212e-08
-3.11705e-09
-1.30858e-09
2.64771e-08
-3.20966e-09
-4.36166e-10
2.64441e-08
-3.16918e-09
4.33674e-11
2.60806e-08
-3.03006e-09
3.7539e-10
2.52965e-08
-2.79536e-09
8.12083e-10
2.39054e-08
-2.46058e-09
1.44787e-09
2.16368e-08
-2.03127e-09
2.35317e-09
1.81518e-08
-1.52317e-09
3.5771e-09
1.31832e-08
-9.58579e-10
5.01558e-09
6.7067e-09
-1.29456e-10
6.38114e-09
1.3519e-09
6.37428e-09
1.83976e-08
-1.38324e-09
-1.83945e-08
2.21729e-08
-2.29951e-09
-3.79349e-09
2.44394e-08
-2.76206e-09
-2.33468e-09
2.5776e-08
-2.98507e-09
-1.46874e-09
2.6221e-08
-3.03029e-09
-6.24412e-10
2.6201e-08
-2.96724e-09
-1.81993e-10
2.58704e-08
-2.82446e-09
1.25009e-10
2.51234e-08
-2.60276e-09
5.54495e-10
2.3756e-08
-2.29942e-09
1.20633e-09
2.14751e-08
-1.91545e-09
2.16531e-09
1.79259e-08
-1.4595e-09
3.48575e-09
1.28706e-08
-9.34193e-10
5.03106e-09
6.42279e-09
-1.23122e-10
6.44177e-09
1.38061e-09
6.39421e-09
1.83052e-08
-1.26692e-09
-1.84215e-08
2.20007e-08
-2.08852e-09
-3.90655e-09
2.42317e-08
-2.47436e-09
-2.5188e-09
2.55393e-08
-2.62693e-09
-1.66573e-09
2.59605e-08
-2.62915e-09
-8.22371e-10
2.5936e-08
-2.55181e-09
-3.90947e-10
2.56228e-08
-2.41553e-09
-9.57308e-11
2.49082e-08
-2.21661e-09
3.28601e-10
2.35692e-08
-1.95623e-09
9.95951e-10
2.12903e-08
-1.63777e-09
2.00148e-09
1.77024e-08
-1.26565e-09
3.39431e-09
1.25877e-08
-8.33676e-10
5.01458e-09
6.16405e-09
-1.51151e-10
6.45199e-09
1.17239e-09
6.37244e-09
1.82276e-08
-1.02128e-09
-1.84732e-08
2.18323e-08
-1.67958e-09
-4.01363e-09
2.40288e-08
-1.9672e-09
-2.70364e-09
2.53111e-08
-2.05441e-09
-1.85491e-09
2.57109e-08
-2.03032e-09
-9.98562e-10
2.56768e-08
-1.95345e-09
-5.64242e-10
2.53763e-08
-1.83705e-09
-2.77941e-10
2.46933e-08
-1.67784e-09
1.44415e-10
2.33837e-08
-1.47765e-09
8.31297e-10
2.1113e-08
-1.24173e-09
1.87497e-09
1.75018e-08
-9.74512e-10
3.32033e-09
1.23469e-08
-6.69564e-10
4.99118e-09
5.94644e-09
-1.90685e-10
6.44046e-09
7.8725e-10
6.33179e-09
1.81416e-08
-6.96604e-10
-1.84662e-08
2.1659e-08
-1.14681e-09
-4.0502e-09
2.38367e-08
-1.32007e-09
-2.8248e-09
2.51136e-08
-1.34484e-09
-1.98644e-09
2.55088e-08
-1.30766e-09
-1.11783e-09
2.54759e-08
-1.24441e-09
-6.76128e-10
2.51913e-08
-1.15856e-09
-3.93736e-10
2.4536e-08
-1.04938e-09
2.69641e-11
2.32521e-08
-9.19682e-10
7.26197e-10
2.09915e-08
-7.76143e-10
1.79534e-09
1.73679e-08
-6.24881e-10
3.27441e-09
1.21881e-08
-4.63764e-10
4.97443e-09
5.80124e-09
-2.28347e-10
6.42501e-09
2.92476e-10
6.29625e-09
1.80691e-08
-3.79965e-10
-1.83856e-08
2.15219e-08
-6.06934e-10
-3.99268e-09
2.36973e-08
-6.47129e-10
-2.84822e-09
2.4987e-08
-6.045e-10
-2.03007e-09
2.53951e-08
-5.55357e-10
-1.16041e-09
2.53723e-08
-5.06544e-10
-7.14913e-10
2.51018e-08
-4.51885e-10
-4.36088e-10
2.44666e-08
-3.94134e-10
-1.98077e-11
2.32008e-08
-3.37012e-10
6.83364e-10
2.09484e-08
-2.87107e-10
1.76375e-09
1.73194e-08
-2.53921e-10
3.25842e-09
1.21287e-08
-2.42424e-10
4.96986e-09
5.74625e-09
-2.61796e-10
6.41643e-09
-2.41292e-10
6.28027e-09
1.80313e-08
-1.30526e-10
-1.82806e-08
2.14538e-08
-1.46036e-10
-3.88336e-09
2.36328e-08
-3.87638e-11
-2.78727e-09
2.49479e-08
7.392e-11
-1.99346e-09
2.53795e-08
1.45695e-10
-1.13261e-09
2.5371e-08
1.90322e-10
-6.88201e-10
2.51134e-08
2.19929e-10
-4.141e-10
2.44898e-08
2.31942e-10
-2.25425e-12
2.32316e-08
2.23451e-10
6.98025e-10
2.09808e-08
1.86005e-10
1.77803e-09
1.73486e-08
1.04963e-10
3.27375e-09
1.21565e-08
-3.32599e-11
4.98341e-09
5.77716e-09
-3.03833e-10
6.42192e-09
-7.44927e-10
6.28105e-09
1.80356e-08
5.63321e-11
-1.82224e-08
2.14734e-08
2.25224e-10
-3.80886e-09
2.36623e-08
4.61895e-10
-2.68948e-09
2.49979e-08
6.45896e-10
-1.90746e-09
2.54492e-08
7.49583e-10
-1.05513e-09
2.54547e-08
7.99883e-10
-6.14921e-10
2.52042e-08
8.1413e-10
-3.43516e-10
2.45798e-08
7.91181e-10
6.53992e-11
2.3316e-08
7.27957e-10
7.59621e-10
2.10567e-08
6.13086e-10
1.83253e-09
1.74167e-08
4.25217e-10
3.32021e-09
1.22218e-08
1.42408e-10
5.01964e-09
5.8396e-09
-3.67196e-10
6.44611e-09
-1.20385e-09
6.29878e-09
1.81013e-08
2.20401e-10
-1.82652e-08
2.16014e-08
5.25105e-10
-3.79988e-09
2.38026e-08
8.5275e-10
-2.59184e-09
2.51434e-08
1.1033e-09
-1.79811e-09
2.56017e-08
1.2413e-09
-9.49877e-10
2.56131e-08
1.30349e-09
-5.149e-10
2.53598e-08
1.31127e-09
-2.43613e-10
2.47211e-08
1.26403e-09
1.66142e-10
2.34361e-08
1.15649e-09
8.56718e-10
2.11536e-08
9.73202e-10
1.92274e-09
1.74941e-08
6.86297e-10
3.39876e-09
1.22881e-08
2.6861e-10
5.08028e-09
5.89378e-09
-4.60588e-10
6.48824e-09
-1.64047e-09
6.33063e-09
1.8234e-08
3.77788e-10
-1.83912e-08
2.18213e-08
7.70969e-10
-3.83295e-09
2.403e-08
1.15984e-09
-2.5156e-09
2.53682e-08
1.45951e-09
-1.69429e-09
2.58238e-08
1.62686e-09
-8.40969e-10
2.58304e-08
1.70159e-09
-4.04551e-10
2.55626e-08
1.70574e-09
-1.26389e-10
2.48959e-08
1.63928e-09
2.91615e-10
2.35745e-08
1.49317e-09
9.85062e-10
2.12532e-08
1.2465e-09
2.04831e-09
1.75617e-08
8.67424e-10
3.51078e-09
1.2338e-08
3.28126e-10
5.16462e-09
5.93297e-09
-5.97337e-10
6.54222e-09
-2.07525e-09
6.36797e-09
1.84065e-08
5.19103e-10
-1.85477e-08
2.21002e-08
9.70859e-10
-3.89331e-09
2.43242e-08
1.38803e-09
-2.45195e-09
2.56605e-08
1.7204e-09
-1.59697e-09
2.61089e-08
1.91053e-09
-7.31791e-10
2.61023e-08
1.99122e-09
-2.82853e-10
2.58086e-08
1.98949e-09
1.01724e-11
2.51004e-08
1.9046e-09
4.43073e-10
2.37277e-08
1.71989e-09
1.14621e-09
2.13545e-08
1.41137e-09
2.20867e-09
1.76238e-08
9.47715e-10
3.65079e-09
1.23837e-08
3.05282e-10
5.26324e-09
5.97567e-09
-7.86513e-10
6.59766e-09
-2.50549e-09
6.4061e-09
1.85856e-08
6.27386e-10
-1.86937e-08
2.24062e-08
1.10575e-09
-3.95522e-09
2.46607e-08
1.52163e-09
-2.38777e-09
2.60037e-08
1.86872e-09
-1.49109e-09
2.64492e-08
2.07144e-09
-6.0625e-10
2.64219e-08
2.15234e-09
-1.33611e-10
2.60879e-08
2.14079e-09
1.82941e-10
2.53255e-08
2.03134e-09
6.35839e-10
2.38921e-08
1.8045e-09
1.34902e-09
2.14624e-08
1.43798e-09
2.40335e-09
1.76971e-08
9.04636e-10
3.80867e-09
1.24541e-08
1.875e-10
5.36113e-09
6.05146e-09
-1.02558e-09
6.64207e-09
-2.89306e-09
6.43919e-09
1.87562e-08
6.76855e-10
-1.88055e-08
2.27177e-08
1.13963e-09
-3.99508e-09
2.50227e-08
1.53036e-09
-2.31345e-09
2.63848e-08
1.86945e-09
-1.36255e-09
2.68344e-08
2.06485e-09
-4.42808e-10
2.67846e-08
2.13373e-09
6.86021e-11
2.64034e-08
2.10442e-09
4.17743e-10
2.55813e-08
1.96816e-09
8.85511e-10
2.4085e-08
1.70367e-09
1.59734e-09
2.16063e-08
1.29389e-09
2.62294e-09
1.78254e-08
7.20278e-10
3.96556e-09
1.26049e-08
-2.87317e-11
5.43698e-09
6.20781e-09
-1.28837e-09
6.6601e-09
-3.14554e-09
6.4604e-09
1.89145e-08
6.45952e-10
-1.88834e-08
2.30267e-08
1.0451e-09
-4.01731e-09
2.53973e-08
1.38174e-09
-2.22167e-09
2.67944e-08
1.68505e-09
-1.21245e-09
2.72491e-08
1.85074e-09
-2.40457e-10
2.71699e-08
1.89576e-09
3.17342e-10
2.67399e-08
1.84186e-09
6.92688e-10
2.58612e-08
1.68304e-09
1.16399e-09
2.431e-08
1.39862e-09
1.85634e-09
2.18011e-08
9.75558e-10
2.82746e-09
1.80321e-08
4.07196e-10
4.08218e-09
1.28605e-08
-3.14078e-10
5.45713e-09
6.44751e-09
-1.51221e-09
6.63699e-09
-3.16232e-09
6.46437e-09
1.90662e-08
5.3278e-10
-1.89528e-08
2.33309e-08
8.18976e-10
-4.03831e-09
2.5771e-08
1.07201e-09
-2.13012e-09
2.72099e-08
1.31358e-09
-1.06717e-09
2.76729e-08
1.43099e-09
-4.3112e-11
2.7564e-08
1.44318e-09
5.61672e-10
2.70859e-08
1.36955e-09
9.50494e-10
2.61565e-08
1.20222e-09
1.41024e-09
2.45647e-08
9.25522e-10
2.06502e-09
2.20449e-08
5.31915e-10
2.96352e-09
1.83102e-08
2.5971e-11
4.11594e-09
1.31972e-08
-5.98446e-10
5.39741e-09
6.7361e-09
-1.61711e-09
6.56611e-09
-2.88177e-09
6.45557e-09
1.92151e-08
3.5688e-10
-1.90391e-08
2.36197e-08
4.99454e-10
-4.08483e-09
2.61192e-08
6.50808e-10
-2.07802e-09
2.75835e-08
8.1328e-10
-9.63836e-10
2.8044e-08
8.78936e-10
9.17075e-11
2.79094e-08
8.60001e-10
7.17804e-10
2.73892e-08
7.75385e-10
1.11439e-09
2.64185e-08
6.19373e-10
1.55356e-09
2.48007e-08
3.82747e-10
2.16057e-09
2.22844e-08
6.46945e-11
2.98357e-09
1.8592e-08
-3.25808e-10
4.04415e-09
1.35198e-08
-7.93792e-10
5.2675e-09
6.9832e-09
-1.54465e-09
6.46414e-09
-2.34158e-09
6.44301e-09
1.93545e-08
1.57564e-10
-1.91551e-08
2.38738e-08
1.63815e-10
-4.18347e-09
2.64111e-08
2.12419e-10
-2.09872e-09
2.78837e-08
2.88444e-10
-9.47569e-10
2.83347e-08
3.07822e-10
1.2019e-10
2.81733e-08
2.72923e-10
7.4849e-10
2.76149e-08
1.97675e-10
1.13607e-09
2.66092e-08
7.77289e-11
1.54735e-09
2.49729e-08
-8.97915e-11
2.10873e-09
2.24639e-08
-2.99429e-10
2.87312e-09
1.88016e-08
-5.44676e-10
3.8811e-09
1.37373e-08
-8.30127e-10
5.10054e-09
7.11649e-09
-1.28789e-09
6.36399e-09
-1.66602e-09
6.4409e-09
1.94601e-08
-1.03988e-11
-1.9292e-08
2.40614e-08
-1.03179e-10
-4.33411e-09
2.66176e-08
-1.45802e-10
-2.1978e-09
2.80846e-08
-1.53704e-10
-1.02476e-09
2.85225e-08
-1.71224e-10
4.12683e-11
2.83339e-08
-2.01723e-10
6.63215e-10
2.7741e-08
-2.4532e-10
1.03593e-09
2.67053e-08
-3.07001e-10
1.42041e-09
2.50536e-08
-3.8653e-10
1.94837e-09
2.2548e-08
-4.78031e-10
2.68418e-09
1.88939e-08
-5.80666e-10
3.69007e-09
1.38121e-08
-7.00199e-10
4.95176e-09
7.12887e-09
-9.05272e-10
6.30059e-09
-9.93492e-10
6.45634e-09
1.95025e-08
-1.36359e-10
-1.93764e-08
2.41513e-08
-2.81075e-10
-4.4706e-09
2.67153e-08
-3.79534e-10
-2.33003e-09
2.81644e-08
-4.51399e-10
-1.15127e-09
2.85873e-08
-4.94871e-10
-9.90634e-11
2.83828e-08
-5.12421e-10
5.1533e-10
2.7771e-08
-5.16125e-10
8.82645e-10
2.67188e-08
-5.13008e-10
1.25825e-09
2.50586e-08
-5.04616e-10
1.77844e-09
2.25521e-08
-4.9082e-10
2.51936e-09
1.88927e-08
-4.75636e-10
3.55444e-09
1.37863e-08
-4.65702e-10
4.872e-09
7.07443e-09
-4.81012e-10
6.28765e-09
-4.01941e-10
6.48295e-09
1.94964e-08
-2.32514e-10
-1.93999e-08
2.41624e-08
-4.03438e-10
-4.54323e-09
2.67314e-08
-5.36782e-10
-2.41132e-09
2.81784e-08
-6.59355e-10
-1.23867e-09
2.86048e-08
-7.26112e-10
-1.94784e-10
2.84061e-08
-7.3748e-10
4.24059e-10
2.77986e-08
-7.09424e-10
8.01017e-10
2.6748e-08
-6.50067e-10
1.18799e-09
2.50878e-08
-5.63348e-10
1.71923e-09
2.25785e-08
-4.56296e-10
2.47516e-09
1.89082e-08
-3.36671e-10
3.53161e-09
1.37803e-08
-2.1184e-10
4.87443e-09
7.05264e-09
-6.2997e-11
6.30997e-09
1.42949e-10
6.50796e-09
1.9463e-08
-3.18907e-10
-1.93762e-08
2.41127e-08
-5.26656e-10
-4.52572e-09
2.66868e-08
-7.16835e-10
-2.3933e-09
2.8158e-08
-9.02289e-10
-1.2276e-09
2.86112e-08
-1.00207e-09
-1.76488e-10
2.84389e-08
-1.01941e-09
4.5484e-10
2.78563e-08
-9.72639e-10
8.4646e-10
2.68245e-08
-8.6893e-10
1.25135e-09
2.51736e-08
-7.11118e-10
1.79935e-09
2.26612e-08
-5.09613e-10
2.56649e-09
1.89785e-08
-2.77003e-10
3.62372e-09
1.38387e-08
-2.2098e-11
4.9508e-09
7.10197e-09
3.20738e-10
6.35372e-09
7.21584e-10
6.52373e-09
1.93847e-08
-4.31335e-10
-1.92716e-08
2.39742e-08
-7.10121e-10
-4.40489e-09
2.6545e-08
-9.77861e-10
-2.30872e-09
2.80439e-08
-1.23726e-09
-1.1628e-09
2.85321e-08
-1.38012e-09
-1.09064e-10
2.84005e-08
-1.41546e-09
5.28732e-10
2.78593e-08
-1.36479e-09
9.34544e-10
2.68613e-08
-1.23074e-09
1.36097e-09
2.52284e-08
-1.01203e-09
1.935e-09
2.27135e-08
-7.16736e-10
2.72328e-09
1.90138e-08
-3.61528e-10
3.78539e-09
1.3864e-08
4.32082e-11
5.08579e-09
7.13863e-09
6.21025e-10
6.42634e-09
1.32027e-09
6.54059e-09
1.92578e-08
-5.77589e-10
-1.91106e-08
2.37428e-08
-9.49857e-10
-4.24384e-09
2.62899e-08
-1.29778e-09
-2.22581e-09
2.78034e-08
-1.62917e-09
-1.12026e-09
2.83254e-08
-1.82206e-09
-7.86668e-11
2.82414e-08
-1.88878e-09
5.58883e-10
2.77536e-08
-1.84941e-09
9.74011e-10
2.68016e-08
-1.70028e-09
1.42331e-09
2.51947e-08
-1.4356e-09
2.03218e-09
2.26784e-08
-1.05935e-09
2.86077e-09
1.89524e-08
-5.87947e-10
3.9542e-09
1.3781e-08
-3.39662e-11
5.25043e-09
7.09204e-09
7.80355e-10
6.53158e-09
1.84331e-09
6.56993e-09
1.91027e-08
-7.03819e-10
-1.89755e-08
2.34478e-08
-1.17869e-09
-4.11497e-09
2.59454e-08
-1.60217e-09
-2.19202e-09
2.74539e-08
-1.99692e-09
-1.13941e-09
2.80014e-08
-2.24323e-09
-1.249e-10
2.79696e-08
-2.34885e-09
4.93599e-10
2.75481e-08
-2.32932e-09
9.03336e-10
2.66566e-08
-2.18101e-09
1.37432e-09
2.50904e-08
-1.89275e-09
2.02567e-09
2.25821e-08
-1.46307e-09
2.91447e-09
1.88251e-08
-9.01401e-10
4.07294e-09
1.36132e-08
-2.2409e-10
5.4045e-09
6.95967e-09
7.83108e-10
6.65348e-09
2.18995e-09
6.61427e-09
1.89331e-08
-7.82753e-10
-1.88537e-08
2.31137e-08
-1.35122e-09
-4.00749e-09
2.55468e-08
-1.84125e-09
-2.19354e-09
2.70363e-08
-2.28803e-09
-1.19773e-09
2.7604e-08
-2.57788e-09
-2.3215e-10
2.76341e-08
-2.71183e-09
3.34229e-10
2.72922e-08
-2.71525e-09
7.29658e-10
2.64796e-08
-2.58024e-09
1.21406e-09
2.49766e-08
-2.29047e-09
1.90328e-09
2.24967e-08
-1.83965e-09
2.85936e-09
1.87177e-08
-1.22644e-09
4.10702e-09
1.34524e-08
-4.66829e-10
5.5112e-09
6.80232e-09
6.66897e-10
6.76959e-09
2.32068e-09
6.67306e-09
1.87473e-08
-8.18844e-10
-1.87116e-08
2.27551e-08
-1.46907e-09
-3.89093e-09
2.5125e-08
-2.01565e-09
-2.19641e-09
2.6599e-08
-2.49428e-09
-1.26854e-09
2.71932e-08
-2.80138e-09
-3.7103e-10
2.72895e-08
-2.94662e-09
1.38863e-10
2.7035e-08
-2.96176e-09
5.02039e-10
2.63149e-08
-2.83791e-09
9.79511e-10
2.48965e-08
-2.55896e-09
1.68926e-09
2.24693e-08
-2.11377e-09
2.70405e-09
1.86926e-08
-1.49103e-09
4.04439e-09
1.3382e-08
-6.99461e-10
5.54648e-09
6.70475e-09
4.89938e-10
6.85754e-09
2.28797e-09
6.73881e-09
1.85434e-08
-8.39875e-10
-1.8524e-08
2.23882e-08
-1.55913e-09
-3.75758e-09
2.47148e-08
-2.14102e-09
-2.20409e-09
2.61911e-08
-2.61953e-09
-1.35365e-09
2.68137e-08
-2.91425e-09
-5.11772e-10
2.6969e-08
-3.04574e-09
-5.75271e-11
2.67975e-08
-3.04477e-09
2.53944e-10
2.61685e-08
-2.91516e-09
7.06725e-10
2.48407e-08
-2.64615e-09
1.41612e-09
2.2484e-08
-2.22586e-09
2.47048e-09
1.8735e-08
-1.63437e-09
3.89439e-09
1.33993e-08
-8.66556e-10
5.50494e-09
6.67839e-09
3.09489e-10
6.90336e-09
2.1715e-09
6.79547e-09
1.83431e-08
-8.70035e-10
-1.83157e-08
2.20482e-08
-1.62973e-09
-3.63917e-09
2.43576e-08
-2.20347e-09
-2.25166e-09
2.58451e-08
-2.64204e-09
-1.46948e-09
2.64882e-08
-2.88767e-09
-6.73883e-10
2.66835e-08
-2.97185e-09
-2.72641e-10
2.65697e-08
-2.92963e-09
-4.10324e-12
2.60113e-08
-2.7768e-09
4.18109e-10
2.47612e-08
-2.51583e-09
1.11858e-09
2.24758e-08
-2.13711e-09
2.19592e-09
1.87675e-08
-1.61357e-09
3.68693e-09
1.34239e-08
-9.25233e-10
5.40159e-09
6.66453e-09
1.64828e-10
6.90303e-09
2.01071e-09
6.82446e-09
1.81963e-08
-8.86207e-10
-1.81836e-08
2.17892e-08
-1.61607e-09
-3.61238e-09
2.4079e-08
-2.11218e-09
-2.38699e-09
2.55613e-08
-2.4553e-09
-1.67506e-09
2.62056e-08
-2.61622e-09
-9.2159e-10
2.64043e-08
-2.63403e-09
-5.42165e-10
2.63093e-08
-2.55079e-09
-2.89094e-10
2.57935e-08
-2.38524e-09
1.19368e-10
2.45998e-08
-2.14634e-09
8.19552e-10
2.23758e-08
-1.83098e-09
1.91347e-09
1.87104e-08
-1.411e-09
3.45835e-09
1.33673e-08
-8.54273e-10
5.26725e-09
6.58791e-09
7.03317e-11
6.8684e-09
1.77907e-09
6.81677e-09
1.81551e-08
-7.91471e-10
-1.82532e-08
2.16521e-08
-1.36043e-09
-3.75828e-09
2.38869e-08
-1.69897e-09
-2.65389e-09
2.53314e-08
-1.89936e-09
-2.00662e-09
2.59451e-08
-1.96654e-09
-1.26999e-09
2.61184e-08
-1.9345e-09
-8.79815e-10
2.60099e-08
-1.84033e-09
-6.0918e-10
2.55091e-08
-1.70261e-09
-1.89253e-10
2.43558e-08
-1.52816e-09
5.27148e-10
2.21831e-08
-1.3124e-09
1.64562e-09
1.85573e-08
-1.03591e-09
3.24198e-09
1.3215e-08
-6.59103e-10
5.13779e-09
6.42812e-09
2.0439e-11
6.82712e-09
1.42241e-09
6.78044e-09
1.82183e-08
-4.45957e-10
-1.85661e-08
2.16251e-08
-7.03702e-10
-4.06741e-09
2.37785e-08
-8.45223e-10
-3.01131e-09
2.51706e-08
-9.0698e-10
-2.38937e-09
2.57447e-08
-9.03645e-10
-1.6425e-09
2.58853e-08
-8.56377e-10
-1.22514e-09
2.57595e-08
-7.94118e-10
-9.27707e-10
2.52716e-08
-7.32051e-10
-4.90941e-10
2.41501e-08
-6.67085e-10
2.50785e-10
2.20093e-08
-5.91434e-10
1.40914e-09
1.84046e-08
-4.944e-10
3.05197e-09
1.30494e-08
-3.39341e-10
5.02407e-09
6.24386e-09
2.3789e-11
6.79059e-09
9.31231e-10
6.73021e-09
1.82847e-08
1.26401e-10
-1.88574e-08
2.164e-08
2.70662e-10
-4.33047e-09
2.3753e-08
3.12251e-10
-3.27151e-09
2.5143e-08
3.49919e-10
-2.64855e-09
2.57235e-08
3.92699e-10
-1.87926e-09
2.58748e-08
4.18947e-10
-1.43015e-09
2.57689e-08
4.15631e-10
-1.10867e-09
2.53021e-08
3.87709e-10
-6.59419e-10
2.41897e-08
3.43815e-10
9.33594e-11
2.20455e-08
2.85771e-10
1.25757e-09
1.84167e-08
2.1107e-10
2.91339e-09
1.29977e-08
1.43909e-10
4.92557e-09
6.10679e-09
1.57076e-10
6.74747e-09
3.51862e-10
6.68208e-09
1.82404e-08
6.49573e-10
-1.87617e-08
2.16689e-08
1.12087e-09
-4.27564e-09
2.38744e-08
1.32329e-09
-3.21358e-09
2.53485e-08
1.44959e-09
-2.57135e-09
2.59999e-08
1.51356e-09
-1.77051e-09
2.62082e-08
1.49841e-09
-1.28688e-09
2.6139e-08
1.42618e-09
-9.41869e-10
2.56643e-08
1.33233e-09
-4.72036e-10
2.45041e-08
1.22956e-09
2.70683e-10
2.22832e-08
1.10256e-09
1.39902e-09
1.85437e-08
9.29342e-10
3.01558e-09
1.29996e-08
7.01478e-10
4.98046e-09
6.0182e-09
3.75552e-10
6.75682e-09
-2.92727e-10
6.66049e-09
1.81594e-08
8.5395e-10
-1.83601e-08
2.17147e-08
1.49337e-09
-3.92153e-09
2.40467e-08
1.86635e-09
-2.8689e-09
2.55824e-08
2.10415e-09
-2.18436e-09
2.62516e-08
2.19766e-09
-1.34762e-09
2.64597e-08
2.17105e-09
-8.7568e-10
2.63667e-08
2.07503e-09
-5.51693e-10
2.58346e-08
1.95388e-09
-8.66044e-11
2.45946e-08
1.8235e-09
6.47803e-10
2.22705e-08
1.66633e-09
1.76083e-09
1.84313e-08
1.44329e-09
3.32534e-09
1.28623e-08
1.09857e-09
5.17126e-09
5.98794e-09
4.66436e-10
6.7826e-09
-9.47457e-10
6.64258e-09
1.81296e-08
8.04507e-10
-1.80759e-08
2.17397e-08
1.50774e-09
-3.61694e-09
2.40991e-08
2.04096e-09
-2.52659e-09
2.56103e-08
2.40602e-09
-1.80559e-09
2.6228e-08
2.56589e-09
-9.78502e-10
2.63841e-08
2.5798e-09
-5.57427e-10
2.62412e-08
2.50914e-09
-2.84104e-10
2.56671e-08
2.37877e-09
1.55815e-10
2.43891e-08
2.19286e-09
9.14784e-10
2.20215e-08
1.957e-09
2.08235e-09
1.81759e-08
1.643e-09
3.65072e-09
1.27053e-08
1.17148e-09
5.402e-09
6.0622e-09
2.90363e-10
6.82314e-09
-1.54984e-09
6.66636e-09
1.81903e-08
7.34106e-10
-1.81162e-08
2.18115e-08
1.45051e-09
-3.55751e-09
2.41154e-08
2.0954e-09
-2.35183e-09
2.55531e-08
2.57205e-09
-1.59708e-09
2.61071e-08
2.82411e-09
-8.05369e-10
2.6217e-08
2.91507e-09
-4.38205e-10
2.60547e-08
2.88591e-09
-2.07144e-10
2.54804e-08
2.74442e-09
2.16102e-10
2.42122e-08
2.49669e-09
9.72219e-10
2.18642e-08
2.14291e-09
2.17003e-09
1.80652e-08
1.6629e-09
3.7869e-09
1.27049e-08
1.01572e-09
5.52348e-09
6.21465e-09
-6.84781e-11
6.85598e-09
-2.04637e-09
6.71409e-09
1.83468e-08
7.6982e-10
-1.83802e-08
2.20103e-08
1.48115e-09
-3.68998e-09
2.42599e-08
2.15182e-09
-2.30177e-09
2.56539e-08
2.68659e-09
-1.5042e-09
2.61944e-08
3.00519e-09
-7.16962e-10
2.63153e-08
3.15175e-09
-3.52625e-10
2.61653e-08
3.15929e-09
-1.17795e-10
2.55863e-08
3.02395e-09
3.05592e-10
2.43051e-08
2.73192e-09
1.053e-09
2.19608e-08
2.27392e-09
2.22094e-09
1.81887e-08
1.63567e-09
3.80735e-09
1.287e-08
8.18596e-10
5.5238e-09
6.37303e-09
-4.24688e-10
6.86088e-09
-2.39936e-09
6.72921e-09
1.85555e-08
8.66566e-10
-1.86514e-08
2.23442e-08
1.5545e-09
-3.86032e-09
2.46078e-08
2.17247e-09
-2.28265e-09
2.60152e-08
2.6999e-09
-1.41895e-09
2.65825e-08
3.02864e-09
-5.88861e-10
2.67075e-08
3.18665e-09
-1.57664e-10
2.652e-08
3.20399e-09
1.45664e-10
2.5878e-08
3.06356e-09
6.06038e-10
2.45289e-08
2.74147e-09
1.34407e-09
2.21369e-08
2.2269e-09
2.44462e-09
1.83459e-08
1.51109e-09
3.92166e-09
1.30159e-08
6.14167e-10
5.54111e-09
6.45381e-09
-7.11887e-10
6.85592e-09
-2.64287e-09
6.70005e-09
1.87672e-08
9.00824e-10
-1.88015e-08
2.27422e-08
1.53277e-09
-3.95336e-09
2.50827e-08
2.06163e-09
-2.22998e-09
2.65331e-08
2.53527e-09
-1.28617e-09
2.71049e-08
2.8312e-09
-3.74753e-10
2.71808e-08
2.96952e-09
1.41066e-10
2.69078e-08
2.96631e-09
5.10984e-10
2.61668e-08
2.8103e-09
9.95293e-10
2.47186e-08
2.47726e-09
1.71436e-09
2.22496e-08
1.95517e-09
2.74354e-09
1.84222e-08
1.244e-09
4.09808e-09
1.30897e-08
3.67353e-10
5.58362e-09
6.50196e-09
-9.47053e-10
6.8274e-09
-2.77679e-09
6.63772e-09
1.89525e-08
8.07697e-10
-1.88598e-08
2.31269e-08
1.33692e-09
-3.97947e-09
2.55572e-08
1.76994e-09
-2.13986e-09
2.70453e-08
2.17413e-09
-1.12837e-09
2.75993e-08
2.41667e-09
-1.41105e-10
2.76031e-08
2.51522e-09
4.48878e-10
2.72349e-08
2.48436e-09
8.48779e-10
2.6393e-08
2.31551e-09
1.33574e-09
2.48491e-08
1.98995e-09
2.03097e-09
2.23135e-08
1.50088e-09
2.99043e-09
1.84767e-08
8.57136e-10
4.22466e-09
1.31879e-08
7.35147e-11
5.58437e-09
6.61062e-09
-1.1249e-09
6.75717e-09
-2.73022e-09
6.56484e-09
1.91163e-08
6.22263e-10
-1.89312e-08
2.34669e-08
1.00706e-09
-4.02168e-09
2.59673e-08
1.34186e-09
-2.07346e-09
2.74716e-08
1.66766e-09
-9.99283e-10
2.79981e-08
1.85112e-09
3.72013e-11
2.79388e-08
1.90592e-09
6.66515e-10
2.74886e-08
1.85026e-09
1.08225e-09
2.65647e-08
1.67761e-09
1.55982e-09
2.49547e-08
1.38002e-09
2.21827e-09
2.23922e-08
9.57489e-10
3.10469e-09
1.85909e-08
4.24602e-10
4.233e-09
1.33818e-08
-2.13209e-10
5.49533e-09
6.80979e-09
-1.19422e-09
6.64114e-09
-2.42768e-09
6.50712e-09
1.92766e-08
4.06425e-10
-1.90608e-08
2.37693e-08
6.44392e-10
-4.13025e-09
2.63107e-08
8.84407e-10
-2.0845e-09
2.78103e-08
1.1215e-09
-9.54319e-10
2.83046e-08
1.2418e-09
1.13562e-10
2.81932e-08
1.25727e-09
7.58351e-10
2.76787e-08
1.18695e-09
1.17572e-09
2.66962e-08
1.02767e-09
1.63026e-09
2.50516e-08
7.80127e-10
2.24217e-09
2.24953e-08
4.51813e-10
3.05975e-09
1.87483e-08
5.88007e-11
4.11067e-09
1.3608e-08
-3.98141e-10
5.32324e-09
7.00373e-09
-1.0963e-09
6.50447e-09
-1.89829e-09
6.47351e-09
1.94282e-08
2.32053e-10
-1.92536e-08
2.40276e-08
3.53951e-10
-4.3085e-09
2.65859e-08
5.06132e-10
-2.17988e-09
2.80713e-08
6.44717e-10
-1.00883e-09
2.85359e-08
7.03441e-10
7.30071e-11
2.83764e-08
6.93352e-10
7.22171e-10
2.7808e-08
6.26072e-10
1.12745e-09
2.67826e-08
5.02094e-10
1.54887e-09
2.51195e-08
3.26055e-10
2.11461e-09
2.25771e-08
1.09318e-10
2.88216e-09
1.88724e-08
-1.35836e-10
3.8964e-09
1.37599e-08
-4.08812e-10
5.12019e-09
7.09679e-09
-8.22837e-10
6.38666e-09
-1.26842e-09
6.46562e-09
1.95826e-08
4.64283e-11
-1.93965e-08
2.42159e-08
2.06567e-10
-4.4851e-09
2.67828e-08
2.50373e-10
-2.31055e-09
2.82589e-08
2.80966e-10
-1.11213e-09
2.86948e-08
3.01178e-10
-3.39947e-11
2.84927e-08
2.91543e-10
6.02999e-10
2.78797e-08
2.48334e-10
9.8925e-10
2.68207e-08
1.77282e-10
1.38185e-09
2.51442e-08
8.4726e-11
1.9154e-09
2.26111e-08
-2.01851e-11
2.65974e-09
1.8927e-08
-1.31974e-10
3.67715e-09
1.38118e-08
-2.50759e-10
4.95389e-09
7.10192e-09
-4.34283e-10
6.31798e-09
-6.53429e-10
6.48554e-09
1.95909e-08
-1.95442e-08
2.44179e-08
-4.62002e-09
2.70343e-08
-2.36582e-09
2.84603e-08
-1.14484e-09
2.88484e-08
-8.70666e-11
2.86153e-08
5.2435e-10
2.79736e-08
8.89461e-10
2.68868e-08
1.26331e-09
2.51911e-08
1.77945e-09
2.26541e-08
2.51564e-09
1.89753e-08
3.54553e-09
1.38619e-08
4.86137e-09
7.14367e-09
6.28273e-09
6.48972e-09
7.11481e-09
-1.53503e-09
-2.21301e-08
1.09942e-08
-1.66207e-09
-3.33765e-09
1.26846e-08
-1.63395e-09
7.02694e-10
1.38466e-08
-1.49725e-09
1.93294e-09
1.43544e-08
-1.17597e-09
2.88386e-09
1.4078e-08
-7.51322e-10
3.50298e-09
1.29583e-08
-1.74631e-10
3.86844e-09
1.0923e-08
5.36828e-10
4.19161e-09
8.01363e-09
1.20134e-09
4.60587e-09
4.44346e-09
1.61876e-09
5.09837e-09
7.34207e-10
1.39971e-09
5.76656e-09
-1.90997e-09
-2.17222e-10
6.80612e-09
-2.2044e-09
-2.94898e-09
7.59268e-09
-4.83935e-09
6.36554e-09
6.51885e-09
-2.15254e-09
-2.50848e-08
1.05233e-08
-2.93821e-09
-6.94835e-09
1.26456e-08
-3.15462e-09
-2.50634e-09
1.4512e-08
-3.1493e-09
-7.20301e-10
1.61265e-08
-2.90097e-09
7.68077e-10
1.7262e-08
-2.44765e-09
1.92174e-09
1.79088e-08
-1.83732e-09
2.85244e-09
1.80611e-08
-1.088e-09
3.77031e-09
1.7571e-08
-2.5152e-10
4.74235e-09
1.62834e-08
4.85495e-10
5.74284e-09
1.40905e-08
6.77206e-10
6.79102e-09
1.04614e-08
-1.32369e-12
7.83308e-09
5.28564e-09
-1.84622e-09
9.20737e-09
-3.58402e-09
9.27739e-09
6.38944e-09
-2.67169e-09
-2.46761e-08
1.01462e-08
-3.82214e-09
-6.96611e-09
1.21071e-08
-4.14358e-09
-3.12672e-09
1.37769e-08
-4.12411e-09
-1.68327e-09
1.5238e-08
-3.8745e-09
-3.71068e-10
1.63648e-08
-3.46113e-09
6.92711e-10
1.71304e-08
-2.92222e-09
1.6027e-09
1.7531e-08
-2.26541e-09
2.5468e-09
1.75111e-08
-1.51546e-09
3.6096e-09
1.69034e-08
-7.56538e-10
4.80637e-09
1.52875e-08
-1.9443e-10
6.16947e-09
1.21711e-08
-1.15612e-10
7.73806e-09
6.85924e-09
-7.11681e-10
9.69766e-09
-1.01222e-09
1.00453e-08
6.24166e-09
-2.96433e-09
-2.46904e-08
9.81461e-09
-4.31227e-09
-7.07344e-09
1.16765e-08
-4.65928e-09
-3.49716e-09
1.32679e-08
-4.5678e-09
-2.23935e-09
1.46332e-08
-4.25179e-09
-1.06575e-09
1.56597e-08
-3.82442e-09
-1.20639e-10
1.6337e-08
-3.3221e-09
6.95528e-10
1.6657e-08
-2.72401e-09
1.58755e-09
1.65358e-08
-2.02859e-09
2.67618e-09
1.57812e-08
-1.27999e-09
4.05344e-09
1.40745e-08
-6.00927e-10
5.7965e-09
1.09867e-08
-1.74179e-10
7.89769e-09
5.93903e-09
1.51433e-11
1.026e-08
5.3914e-10
1.04862e-08
6.07318e-09
-3.07812e-09
-2.45799e-08
9.45774e-09
-4.51539e-09
-7.04887e-09
1.12203e-08
-4.80932e-09
-3.77507e-09
1.27464e-08
-4.59881e-09
-2.69152e-09
1.40456e-08
-4.18274e-09
-1.63385e-09
1.49811e-08
-3.71347e-09
-7.71976e-10
1.55684e-08
-3.21028e-09
-4.30314e-11
1.58287e-08
-2.65542e-09
7.8037e-10
1.56784e-08
-2.0244e-09
1.87238e-09
1.48925e-08
-1.34327e-09
3.40782e-09
1.31154e-08
-6.91544e-10
5.51493e-09
9.97095e-09
-1.81263e-10
8.08249e-09
5.20091e-09
3.36641e-10
1.06765e-08
1.31142e-09
1.07195e-08
5.90423e-09
-3.05086e-09
-2.43996e-08
9.10622e-09
-4.47481e-09
-7.00782e-09
1.07714e-08
-4.64931e-09
-4.03396e-09
1.22388e-08
-4.30978e-09
-3.06542e-09
1.34889e-08
-3.80254e-09
-2.06672e-09
1.43656e-08
-3.29382e-09
-1.25317e-09
1.48975e-08
-2.79066e-09
-5.76152e-10
1.51324e-08
-2.27086e-09
1.92771e-10
1.49946e-08
-1.71577e-09
1.27724e-09
1.42315e-08
-1.14456e-09
2.91787e-09
1.24477e-08
-6.15101e-10
5.2849e-09
9.29444e-09
-1.7547e-10
8.16344e-09
4.71302e-09
4.23702e-10
1.08759e-08
1.61325e-09
1.07856e-08
5.75953e-09
-2.89028e-09
-2.43147e-08
8.7954e-09
-4.18105e-09
-7.12335e-09
1.03598e-08
-4.22717e-09
-4.32147e-09
1.17655e-08
-3.78168e-09
-3.40283e-09
1.29745e-08
-3.21799e-09
-2.41812e-09
1.38106e-08
-2.69219e-09
-1.61972e-09
1.43046e-08
-2.20546e-09
-9.54093e-10
1.45288e-08
-1.73472e-09
-2.05519e-10
1.44178e-08
-1.26732e-09
8.69329e-10
1.36915e-08
-8.24394e-10
2.57199e-09
1.19185e-08
-4.5319e-10
5.09751e-09
8.76778e-09
-1.50027e-10
8.15699e-09
4.3269e-09
3.88839e-10
1.09182e-08
1.60118e-09
1.07334e-08
5.66159e-09
-2.60824e-09
-2.43652e-08
8.54786e-09
-3.63744e-09
-7.33657e-09
9.99873e-09
-3.55861e-09
-4.6384e-09
1.13292e-08
-3.05693e-09
-3.7211e-09
1.24893e-08
-2.49026e-09
-2.71028e-09
1.32927e-08
-1.98896e-09
-1.89744e-09
1.3764e-08
-1.54745e-09
-1.22487e-09
1.39827e-08
-1.14256e-09
-4.81796e-10
1.38972e-08
-7.71316e-10
5.86149e-10
1.3208e-08
-4.61165e-10
2.32819e-09
1.14524e-08
-2.50345e-10
4.94795e-09
8.30959e-09
-1.01879e-10
8.11014e-09
3.98253e-09
2.9135e-10
1.08775e-08
1.34546e-09
1.0611e-08
5.57821e-09
-2.19758e-09
-2.44621e-08
8.33847e-09
-2.86169e-09
-7.5497e-09
9.68767e-09
-2.66492e-09
-4.9466e-09
1.09505e-08
-2.16951e-09
-4.00521e-09
1.20642e-08
-1.66115e-09
-2.9414e-09
1.28418e-08
-1.22856e-09
-2.10209e-09