/*--------------------------------*- C++ -*----------------------------------*\
| =========                 |                                                 |
| \\      /  F ield         | OpenFOAM: The Open Source CFD Toolbox           |
|  \\    /   O peration     | Version:  5.0                                   |
|   \\  /    A nd           | Web:      www.OpenFOAM.org                      |
|    \\/     M anipulation  |                                                 |
\*---------------------------------------------------------------------------*/
FoamFile
{
    version     2.0;
    format      ascii;
    class       surfaceScalarField;
    location    "475";
    object      phi;
}
// * * * * * * * * * * * * * * * * * * * * * * * * * * * * * * * * * * * * * //

dimensions      [0 3 -1 0 0 0 0];

internalField   nonuniform List<scalar> 
3052
(
1.20784e-25
-1.30195e-25
4.18945e-25
-2.97951e-25
8.6528e-25
-4.46593e-25
1.42511e-24
-5.60208e-25
2.07905e-24
-6.54301e-25
2.8118e-24
-7.33054e-25
3.60608e-24
-7.94537e-25
4.44781e-24
-8.41956e-25
5.32447e-24
-8.76869e-25
6.22396e-24
-8.9967e-25
7.135e-24
-9.1121e-25
8.04734e-24
-9.12505e-25
8.95146e-24
-9.04265e-25
9.83834e-24
-8.87012e-25
1.06997e-23
-8.61467e-25
1.15278e-23
-8.28285e-25
1.23158e-23
-7.88016e-25
1.30569e-23
-7.41275e-25
1.37455e-23
-6.88648e-25
1.43762e-23
-6.30739e-25
1.49442e-23
-5.68104e-25
1.54455e-23
-5.01317e-25
1.58764e-23
-4.31001e-25
1.62325e-23
-3.56111e-25
1.65137e-23
-2.81177e-25
1.67195e-23
-2.05874e-25
1.68445e-23
-1.2503e-25
1.68862e-23
-4.16454e-26
1.68456e-23
4.05765e-26
1.67217e-23
1.23953e-25
1.65169e-23
2.04877e-25
1.62367e-23
2.80212e-25
1.58816e-23
3.55161e-25
1.54516e-23
4.30104e-25
1.49512e-23
5.00456e-25
1.4384e-23
5.67277e-25
1.37541e-23
6.30025e-25
1.30662e-23
6.87971e-25
1.23257e-23
7.40697e-25
1.15383e-23
7.8753e-25
1.07105e-23
8.27881e-25
9.84951e-24
8.61135e-25
8.96285e-24
8.86799e-25
8.05889e-24
9.04124e-25
7.14652e-24
9.12532e-25
6.23538e-24
9.11309e-25
5.33581e-24
8.9975e-25
4.45894e-24
8.7706e-25
3.61667e-24
8.42465e-25
2.822e-24
7.94863e-25
2.08915e-24
7.33058e-25
1.43376e-24
6.55606e-25
8.72665e-25
5.61311e-25
4.26519e-25
4.46365e-25
1.27619e-25
2.99101e-25
1.27645e-25
1.06233e-25
-2.36128e-25
3.77212e-25
-5.69516e-25
7.79352e-25
-8.49813e-25
1.2947e-24
-1.07672e-24
1.90208e-24
-1.26273e-24
2.58174e-24
-1.41362e-24
3.32013e-24
-1.53372e-24
4.10387e-24
-1.62639e-24
4.92003e-24
-1.69366e-24
5.75742e-24
-1.73764e-24
6.6058e-24
-1.76013e-24
7.45541e-24
-1.76261e-24
8.29713e-24
-1.74645e-24
9.12273e-24
-1.71304e-24
9.92452e-24
-1.66364e-24
1.06953e-23
-1.59941e-24
1.14285e-23
-1.52155e-24
1.21181e-23
-1.4312e-24
1.27587e-23
-1.32947e-24
1.33452e-23
-1.21747e-24
1.38732e-23
-1.0963e-24
1.43388e-23
-9.67047e-25
1.47385e-23
-8.30814e-25
1.50709e-23
-6.88665e-25
1.53343e-23
-5.44622e-25
1.55252e-23
-3.96822e-25
1.56419e-23
-2.41684e-25
1.56817e-23
-8.13853e-26
1.56429e-23
7.94178e-26
1.55272e-23
2.39781e-25
1.53372e-23
3.95033e-25
1.50747e-23
5.42889e-25
1.47431e-23
6.8695e-25
1.43443e-23
8.29169e-25
1.38795e-23
9.65513e-25
1.33522e-23
1.09485e-24
1.27664e-23
1.21617e-24
1.21264e-23
1.32829e-24
1.14373e-23
1.43018e-24
1.07046e-23
1.52068e-24
9.93421e-24
1.59872e-24
9.13269e-24
1.66311e-24
8.30725e-24
1.71272e-24
7.46558e-24
1.7463e-24
6.61602e-24
1.76263e-24
5.76753e-24
1.76036e-24
4.92979e-24
1.73807e-24
4.11324e-24
1.69423e-24
3.32923e-24
1.62711e-24
2.59005e-24
1.53469e-24
1.90903e-24
1.41475e-24
1.3013e-24
1.26403e-24
7.84849e-25
1.07845e-24
3.80273e-25
8.51594e-25
1.0802e-25
5.71952e-25
2.35697e-25
8.54143e-26
-3.21685e-25
3.23431e-25
-8.08044e-25
6.88093e-25
-1.21532e-24
1.15881e-24
-1.54839e-24
1.71564e-24
-1.82048e-24
2.34299e-24
-2.04178e-24
3.02583e-24
-2.21729e-24
3.75094e-24
-2.35214e-24
4.5068e-24
-2.45011e-24
5.28273e-24
-2.5141e-24
6.06877e-24
-2.54667e-24
6.85587e-24
-2.55015e-24
7.63573e-24
-2.52673e-24
8.40056e-24
-2.47825e-24
9.14316e-24
-2.40658e-24
9.85694e-24
-2.31351e-24
1.05359e-23
-2.20075e-24
1.11743e-23
-2.06991e-24
1.17673e-23
-1.92266e-24
1.23102e-23
-1.76057e-24
1.2799e-23
-1.58527e-24
1.32301e-23
-1.39832e-24
1.36006e-23
-1.20144e-24
1.39085e-23
-9.96593e-25
1.415e-23
-7.86235e-25
1.43229e-23
-5.6974e-25
1.44272e-23
-3.45947e-25
1.44626e-23
-1.1671e-25
1.4428e-23
1.14065e-25
1.43246e-23
3.43349e-25
1.41525e-23
5.67236e-25
1.39117e-23
7.83826e-25
1.36046e-23
9.94271e-25
1.32348e-23
1.19921e-24
1.28043e-23
1.39621e-24
1.23161e-23
1.5833e-24
1.17738e-23
1.75879e-24
1.11813e-23
1.92107e-24
1.05433e-23
2.06853e-24
9.86479e-24
2.1996e-24
9.1513e-24
2.3126e-24
8.40891e-24
2.40592e-24
7.64423e-24
2.47784e-24
6.8644e-24
2.52661e-24
6.07719e-24
2.55033e-24
5.29096e-24
2.54711e-24
4.51477e-24
2.5148e-24
3.75847e-24
2.45109e-24
3.0327e-24
2.35347e-24
2.3491e-24
2.2189e-24
1.72093e-24
2.04353e-24
1.16266e-24
1.82291e-24
6.90906e-25
1.55082e-24
3.25071e-25
1.21813e-24
8.74372e-26
8.10025e-25
3.23163e-25
7.46551e-26
-3.96338e-25
2.82728e-25
-1.01658e-24
6.07942e-25
-1.54122e-24
1.03245e-24
-1.97368e-24
1.53925e-24
-2.32804e-24
2.11183e-24
-2.61508e-24
2.73701e-24
-2.8431e-24
3.40243e-24
-3.01814e-24
4.09682e-24
-3.14502e-24
4.81007e-24
-3.22783e-24
5.53302e-24
-3.27006e-24
6.25715e-24
-3.27469e-24
6.97459e-24
-3.24453e-24
7.67818e-24
-3.18218e-24
8.36131e-24
-3.09002e-24
9.01787e-24
-2.97036e-24
9.64225e-24
-2.82538e-24
1.02294e-23
-2.65726e-24
1.07746e-23
-2.46808e-24
1.12738e-23
-2.2599e-24
1.17232e-23
-2.03479e-24
1.21196e-23
-1.79483e-24
1.24601e-23
-1.5421e-24
1.27423e-23
-1.27879e-24
1.2963e-23
-1.00696e-24
1.31205e-23
-7.27329e-25
1.3215e-23
-4.40396e-25
1.32467e-23
-1.48402e-25
1.32156e-23
1.45224e-25
1.31218e-23
4.37281e-25
1.29648e-23
7.24305e-25
1.27448e-23
1.00404e-24
1.24632e-23
1.27596e-24
1.21232e-23
1.53941e-24
1.17274e-23
1.7923e-24
1.12784e-23
2.03246e-24
1.07797e-23
2.25777e-24
1.02349e-23
2.46619e-24
9.6481e-24
2.65562e-24
9.02401e-24
2.82402e-24
8.36767e-24
2.9693e-24
7.68467e-24
3.08929e-24
6.98114e-24
3.18178e-24
6.26368e-24
3.24448e-24
5.53947e-24
3.27499e-24
4.81634e-24
3.27071e-24
4.10274e-24
3.22889e-24
3.40785e-24
3.14649e-24
2.74189e-24
3.01995e-24
2.11607e-24
2.84525e-24
1.54244e-24
2.61771e-24
1.03481e-24
2.3311e-24
6.09395e-25
1.97679e-24
2.83416e-25
1.54459e-24
7.49968e-26
1.01896e-24
3.98186e-25
6.51338e-26
-4.61611e-25
2.47168e-25
-1.19901e-24
5.36246e-25
-1.83083e-24
9.15545e-25
-2.35358e-24
1.37085e-24
-2.78396e-24
1.88812e-24
-3.13293e-24
2.45466e-24
-3.41018e-24
3.05892e-24
-3.62289e-24
3.69049e-24
-3.77705e-24
4.33994e-24
-3.8777e-24
4.99857e-24
-3.92906e-24
5.65852e-24
-3.93498e-24
6.31257e-24
-3.89891e-24
6.95407e-24
-3.82397e-24
7.5769e-24
-3.71311e-24
8.17548e-24
-3.56917e-24
8.74468e-24
-3.3948e-24
9.27986e-24
-3.19262e-24
9.77677e-24
-2.96515e-24
1.02316e-23
-2.7149e-24
1.06411e-23
-2.44433e-24
1.1002e-23
-2.1559e-24
1.13119e-23
-1.85204e-24
1.15683e-23
-1.53518e-24
1.17688e-23
-1.20756e-24
1.19123e-23
-8.70814e-25
1.19985e-23
-5.26507e-25
1.20273e-23
-1.77234e-25
1.19989e-23
1.73719e-25
1.19132e-23
5.23038e-25
1.17702e-23
8.67426e-25
1.15701e-23
1.20429e-24
1.13141e-23
1.53204e-24
1.10046e-23
1.84905e-24
1.0644e-23
2.15308e-24
1.0235e-23
2.44173e-24
9.78042e-24
2.71255e-24
9.28379e-24
2.96306e-24
8.74884e-24
3.19083e-24
8.17982e-24
3.39334e-24
7.58138e-24
3.56805e-24
6.95865e-24
3.71235e-24
6.31717e-24
3.8236e-24
5.66308e-24
3.89894e-24
5.00301e-24
3.93545e-24
4.34416e-24
3.92997e-24
3.69442e-24
3.87905e-24
3.06252e-24
3.77884e-24
2.4578e-24
3.62513e-24
1.89054e-24
3.41298e-24
1.37262e-24
3.13612e-24
9.16896e-25
2.78728e-24
5.36673e-25
2.35748e-24
2.47434e-25
1.83441e-24
6.44595e-26
1.20224e-24
4.62667e-25
5.58407e-26
-5.17509e-25
2.15876e-25
-1.35942e-24
4.69561e-25
-2.08495e-24
8.0527e-25
-2.68977e-24
1.20992e-24
-3.1891e-24
1.67153e-24
-3.59502e-24
2.1786e-24
-3.9177e-24
2.72066e-24
-4.16537e-24
3.28819e-24
-4.34496e-24
3.87245e-24
-4.46232e-24
4.46547e-24
-4.52242e-24
5.06003e-24
-4.52984e-24
5.64945e-24
-4.4886e-24
6.22765e-24
-4.40241e-24
6.78909e-24
-4.27478e-24
7.32867e-24
-4.10895e-24
7.84176e-24
-3.90807e-24
8.32412e-24
-3.67514e-24
8.77196e-24
-3.41312e-24
9.18181e-24
-3.12487e-24
9.55063e-24
-2.81324e-24
9.87568e-24
-2.48101e-24
1.01546e-23
-2.13096e-24
1.03851e-23
-1.76579e-24
1.05656e-23
-1.38806e-24
1.06949e-23
-1.00006e-24
1.07725e-23
-6.04149e-25
1.07985e-23
-2.03187e-25
1.07728e-23
1.99494e-25
1.06954e-23
6.00498e-25
1.05664e-23
9.96497e-25
1.03862e-23
1.3846e-24
1.01559e-23
1.76247e-24
9.87729e-24
2.12781e-24
9.55247e-24
2.47806e-24
9.18386e-24
2.81051e-24
8.77419e-24
3.12241e-24
8.32652e-24
3.41095e-24
7.8443e-24
3.67329e-24
7.33132e-24
3.90656e-24
6.79181e-24
4.10782e-24
6.2304e-24
4.27405e-24
5.65219e-24
4.40211e-24
5.06272e-24
4.48873e-24
4.46806e-24
4.53045e-24
3.87486e-24
4.52351e-24
3.29041e-24
4.46387e-24
2.72255e-24
4.34709e-24
2.18008e-24
4.168e-24
1.67279e-24
3.92068e-24
1.21082e-24
3.59849e-24
8.05451e-25
3.19307e-24
4.69668e-25
2.69368e-24
2.16003e-25
2.08839e-24
5.63979e-26
1.36225e-24
5.19084e-25
4.83671e-26
-5.66013e-25
1.86787e-25
-1.49816e-24
4.07394e-25
-2.30592e-24
7.00478e-25
-2.98324e-24
1.05521e-24
-3.54423e-24
1.46116e-24
-4.00136e-24
1.90836e-24
-4.36527e-24
2.38752e-24
-4.64487e-24
2.89e-24
-4.84776e-24
3.40789e-24
-4.98051e-24
3.93405e-24
-5.04885e-24
4.46189e-24
-5.05792e-24
4.98536e-24
-5.0123e-24
5.49902e-24
-4.91628e-24
5.99787e-24
-4.7738e-24
6.47732e-24
-4.58857e-24
6.93322e-24
-4.36411e-24
7.36179e-24
-4.10385e-24
7.75965e-24
-3.81108e-24
8.12371e-24
-3.48902e-24
8.45124e-24
-3.14084e-24
8.73981e-24
-2.76964e-24
8.98731e-24
-2.3785e-24
9.1919e-24
-1.9704e-24
9.35209e-24
-1.54826e-24
9.46692e-24
-1.11489e-24
9.53595e-24
-6.7315e-25
9.55901e-24
-2.26216e-25
9.53607e-24
2.22489e-25
9.46716e-24
6.69468e-25
9.35245e-24
1.11129e-24
9.19237e-24
1.54477e-24
8.9879e-24
1.96705e-24
8.74051e-24
2.37532e-24
8.45203e-24
2.76668e-24
8.12458e-24
3.13811e-24
7.76061e-24
3.48656e-24
7.36282e-24
3.80892e-24
6.93429e-24
4.10202e-24
6.47843e-24
4.36264e-24
5.999e-24
4.58748e-24
5.50015e-24
4.77313e-24
4.98647e-24
4.91606e-24
4.46293e-24
5.01254e-24
3.93503e-24
5.05864e-24
3.40876e-24
5.05009e-24
2.89067e-24
4.98227e-24
2.38806e-24
4.85002e-24
1.90878e-24
4.64762e-24
1.46122e-24
4.36858e-24
1.05502e-24
4.00504e-24
7.00422e-25
3.548e-24
4.073e-25
2.98713e-24
1.86436e-25
2.30971e-24
4.81859e-26
1.50068e-24
5.67285e-25
4.13409e-26
-6.07417e-25
1.59295e-25
-1.61641e-24
3.48308e-25
-2.49523e-24
5.99919e-25
-3.23516e-24
9.05506e-25
-3.85013e-24
1.25623e-24
-4.35239e-24
1.64349e-24
-4.75283e-24
2.0592e-24
-5.06087e-24
2.49583e-24
-5.28466e-24
2.94641e-24
-5.43133e-24
3.40458e-24
-5.50725e-24
3.86447e-24
-5.51802e-24
4.32078e-24
-5.4688e-24
4.76868e-24
-5.36435e-24
5.20372e-24
-5.209e-24
5.62189e-24
-5.00687e-24
6.01953e-24
-4.76187e-24
6.39333e-24
-4.47775e-24
6.74029e-24
-4.15813e-24
7.05774e-24
-3.80655e-24
7.34329e-24
-3.42644e-24
7.59482e-24
-3.02122e-24
7.81049e-24
-2.59421e-24
7.98877e-24
-2.14869e-24
8.12842e-24
-1.68791e-24
8.22859e-24
-1.21505e-24
8.28883e-24
-7.33365e-25
8.30892e-24
-2.4627e-25
8.2888e-24
2.42652e-25
8.22854e-24
7.29783e-25
8.12835e-24
1.21155e-24
7.98869e-24
1.68452e-24
7.8104e-24
2.14544e-24
7.5947e-24
2.59112e-24
7.34316e-24
3.01834e-24
7.0576e-24
3.4238e-24
6.74014e-24
3.80416e-24
6.39316e-24
4.15605e-24
6.01934e-24
4.476e-24
5.62168e-24
4.76048e-24
5.20348e-24
5.00586e-24
4.76841e-24
5.20841e-24
4.32049e-24
5.3642e-24
3.86414e-24
5.46912e-24
3.40418e-24
5.51883e-24
2.94597e-24
5.50856e-24
2.49536e-24
5.43314e-24
2.05866e-24
5.287e-24
1.64283e-24
5.06372e-24
1.25564e-24
4.75606e-24
9.04991e-25
4.35597e-24
5.99245e-25
3.85404e-24
3.47756e-25
3.23891e-24
1.59207e-25
2.49842e-24
4.13539e-26
1.61884e-24
6.08651e-25
3.44336e-26
-6.41964e-25
1.33136e-25
-1.71534e-24
2.91458e-25
-2.65378e-24
5.02776e-25
-3.44672e-24
7.60038e-25
-4.10763e-24
1.05592e-24
-4.64852e-24
1.3833e-24
-5.08044e-24
1.73532e-24
-5.41311e-24
2.10553e-24
-5.65507e-24
2.48797e-24
-5.81396e-24
2.8772e-24
-5.89665e-24
3.26814e-24
-5.90911e-24
3.65617e-24
-5.85698e-24
4.03717e-24
-5.74548e-24
4.40732e-24
-5.57926e-24
4.76315e-24
-5.3628e-24
5.10152e-24
-5.10033e-24
5.41958e-24
-4.7959e-24
5.7148e-24
-4.45342e-24
5.98488e-24
-4.07668e-24
6.22778e-24
-3.66938e-24
6.44171e-24
-3.23518e-24
6.62512e-24
-2.77765e-24
6.77674e-24
-2.30032e-24
6.89553e-24
-1.8067e-24
6.98077e-24
-1.30028e-24
7.03203e-24
-7.84604e-25
7.04909e-24
-2.633e-25
7.03188e-24
2.59899e-25
6.98048e-24
7.81239e-25
6.8951e-24
1.29698e-24
6.77619e-24
1.8035e-24
6.62445e-24
2.29726e-24
6.44091e-24
2.77475e-24
6.22687e-24
3.23248e-24
5.98387e-24
3.66691e-24
5.71369e-24
4.07446e-24
5.41839e-24
4.45148e-24
5.10024e-24
4.79428e-24
4.76181e-24
5.09906e-24
4.40593e-24
5.3619e-24
4.03574e-24
5.57876e-24
3.6547e-24
5.74541e-24
3.26665e-24
5.85735e-24
2.87572e-24
5.90996e-24
2.4865e-24
5.89798e-24
2.10406e-24
5.81579e-24
1.73391e-24
5.65736e-24
1.38202e-24
5.41584e-24
1.05469e-24
5.08361e-24
7.58913e-25
4.65198e-24
5.02039e-25
4.11113e-24
2.90969e-25
3.45018e-24
1.32814e-25
2.65693e-24
3.42243e-26
1.71751e-24
6.42884e-25
2.78619e-26
-6.69861e-25
1.07904e-25
-1.79557e-24
2.3644e-25
-2.78249e-24
4.08339e-25
-3.61879e-24
6.17955e-25
-4.31742e-24
8.59465e-25
-4.8902e-24
1.12711e-24
-5.34826e-24
1.4153e-24
-5.70146e-24
1.71872e-24
-5.95864e-24
2.03244e-24
-6.12783e-24
2.35197e-24
-6.21631e-24
2.67306e-24
-6.23032e-24
2.99188e-24
-6.1759e-24
3.30503e-24
-6.05872e-24
3.60931e-24
-5.88363e-24
3.90184e-24
-5.65541e-24
4.18003e-24
-5.37858e-24
4.44153e-24
-5.05745e-24
4.68423e-24
-4.69616e-24
4.90624e-24
-4.29872e-24
5.10588e-24
-3.86906e-24
5.28171e-24
-3.41102e-24
5.43244e-24
-2.92839e-24
5.55703e-24
-2.42491e-24
5.65465e-24
-1.90432e-24
5.72471e-24
-1.37033e-24
5.76684e-24
-8.26706e-25
5.78082e-24
-2.77255e-25
5.7666e-24
2.74159e-25
5.72423e-24
8.23646e-25
5.65393e-24
1.36734e-24
5.55607e-24
1.90142e-24
5.43126e-24
2.42213e-24
5.28033e-24
2.92576e-24
5.10431e-24
3.40857e-24
4.90449e-24
3.86682e-24
4.68232e-24
4.29672e-24
4.43947e-24
4.69442e-24
4.17785e-24
5.05601e-24
3.89956e-24
5.37746e-24
3.60695e-24
5.65463e-24
3.30262e-24
5.88323e-24
2.98945e-24
6.05871e-24
2.67064e-24
6.1763e-24
2.34958e-24
6.23116e-24
2.03011e-24
6.21759e-24
1.71651e-24
6.12955e-24
1.41324e-24
5.9608e-24
1.12522e-24
5.70402e-24
8.57844e-25
5.35115e-24
6.16672e-25
4.89331e-24
4.0729e-25
4.32069e-24
2.35746e-25
3.62191e-24
1.07632e-25
2.78508e-24
2.78861e-26
1.79748e-24
6.70777e-25
2.15227e-26
-6.91459e-25
8.33934e-26
-1.85754e-24
1.82826e-25
-2.88203e-24
3.15973e-25
-3.75205e-24
4.78549e-25
-4.48011e-24
6.66125e-25
-5.07789e-24
8.74235e-25
-5.55648e-24
1.09854e-24
-5.92587e-24
1.33491e-24
-6.19511e-24
1.57949e-24
-6.3725e-24
1.82872e-24
-6.46562e-24
2.0792e-24
-6.48088e-24
2.32807e-24
-6.42484e-24
2.57257e-24
-6.30329e-24
2.8102e-24
-6.12131e-24
3.03864e-24
-5.88391e-24
3.25589e-24
-5.59587e-24
3.46009e-24
-5.26169e-24
3.6496e-24
-4.8857e-24
3.82295e-24
-4.47209e-24
3.97883e-24
-4.02494e-24
4.11608e-24
-3.54828e-24
4.23373e-24
-3.04604e-24
4.33098e-24
-2.52216e-24
4.40718e-24
-1.98051e-24
4.46187e-24
-1.425e-24
4.49472e-24
-8.59543e-25
4.50558e-24
-2.88086e-25
4.49439e-24
2.85383e-25
4.46121e-24
8.56863e-25
4.40621e-24
1.42238e-24
4.3297e-24
1.97797e-24
4.23216e-24
2.51972e-24
4.11422e-24
3.04375e-24
3.9767e-24
3.54614e-24
3.82059e-24
4.02299e-24
3.64703e-24
4.47035e-24
3.45733e-24
4.8842e-24
3.25297e-24
5.26045e-24
3.0356e-24
5.59491e-24
2.80706e-24
5.88326e-24
2.56938e-24
6.12099e-24
2.32486e-24
6.30332e-24
2.07602e-24
6.42524e-24
1.82562e-24
6.48166e-24
1.57652e-24
6.4668e-24
1.33211e-24
6.37407e-24
1.09596e-24
6.19706e-24
8.71961e-25
5.92813e-24
6.64192e-25
5.55903e-24
4.76949e-25
5.08067e-24
3.14834e-25
4.4829e-24
1.82139e-25
3.75469e-24
8.30531e-26
2.88441e-24
2.13653e-26
1.85914e-24
6.92146e-25
1.53132e-26
-7.06769e-25
5.9376e-26
-1.90167e-24
1.30239e-25
-2.95295e-24
2.25178e-25
-3.84704e-24
3.4119e-25
-4.59617e-24
4.75142e-25
-5.2119e-24
6.23876e-25
-5.70527e-24
7.84323e-25
-6.08637e-24
9.53509e-25
-6.36435e-24
1.12858e-24
-6.54761e-24
1.3071e-24
-6.64418e-24
1.48648e-24
-6.6603e-24
1.66481e-24
-6.6032e-24
1.84005e-24
-6.47855e-24
2.01035e-24
-6.29164e-24
2.17407e-24
-6.04764e-24
2.32975e-24
-5.75156e-24
2.47608e-24
-5.40803e-24
2.61188e-24
-5.0215e-24
2.73609e-24
-4.59629e-24
2.84776e-24
-4.13661e-24
2.94608e-24
-3.64659e-24
3.03035e-24
-3.13031e-24
3.09999e-24
-2.59179e-24
3.15455e-24
-2.03505e-24
3.19368e-24
-1.46412e-24
3.21716e-24
-8.83007e-25
3.22487e-24
-2.95774e-25
3.21677e-24
2.9351e-25
3.19289e-24
8.80769e-25
3.15337e-24
1.46193e-24
3.09844e-24
2.03293e-24
3.02844e-24
2.58976e-24
2.94384e-24
3.12839e-24
2.84521e-24
3.64481e-24
2.73325e-24
4.13499e-24
2.60879e-24
4.59485e-24
2.47276e-24
5.02026e-24
2.32624e-24
5.40702e-24
2.17042e-24
5.75079e-24
2.0066e-24
6.04713e-24
1.83624e-24
6.2914e-24
1.66099e-24
6.47862e-24
1.48272e-24
6.60357e-24
1.30344e-24
6.66099e-24
1.12508e-24
6.64522e-24
9.50262e-25
6.54895e-24
7.81392e-25
6.36599e-24
6.21268e-25
6.08832e-24
4.72922e-25
5.70743e-24
3.39484e-25
5.21416e-24
2.23958e-25
4.59849e-24
1.2944e-25
3.84928e-24
5.89632e-26
2.9548e-24
1.52359e-26
1.90301e-24
7.07384e-25
9.22202e-27
-7.16024e-25
3.57337e-26
-1.92816e-24
7.83562e-26
-2.99555e-24
1.35447e-25
-3.90412e-24
2.05219e-25
-4.66594e-24
2.85786e-25
-5.29246e-24
3.75246e-25
-5.79472e-24
4.71757e-25
-6.18288e-24
5.73742e-25
-6.46633e-24
6.79498e-25
-6.65336e-24
7.8652e-25
-6.7512e-24
8.94387e-25
-6.76816e-24
1.00204e-24
-6.71084e-24
1.10768e-24
-6.58419e-24
1.21008e-24
-6.39403e-24
1.30854e-24
-6.14609e-24
1.40219e-24
-5.84521e-24
1.49023e-24
-5.49606e-24
1.57193e-24
-5.10318e-24
1.64664e-24
-4.67099e-24
1.71379e-24
-4.20375e-24
1.77291e-24
-3.70569e-24
1.82356e-24
-3.18094e-24
1.86539e-24
-2.63361e-24
1.89815e-24
-2.06779e-24
1.92162e-24
-1.48756e-24
1.93566e-24
-8.97029e-25
1.9402e-24
-3.00293e-25
1.93521e-24
2.98517e-25
1.92073e-24
8.95271e-25
1.89683e-24
1.48584e-24
1.86365e-24
2.06612e-24
1.82141e-24
2.63202e-24
1.77038e-24
3.17944e-24
1.71092e-24
3.7043e-24
1.64344e-24
4.20249e-24
1.56844e-24
4.66987e-24
1.48649e-24
5.10223e-24
1.39825e-24
5.49528e-24
1.30444e-24
5.84462e-24
1.20587e-24
6.14571e-24
1.10341e-24
6.39387e-24
9.97773e-25
6.58427e-24
8.90185e-25
6.71117e-24
7.82456e-25
6.76873e-24
6.75662e-25
6.75202e-24
5.70173e-25
6.65445e-24
4.68505e-25
6.46766e-24
3.72434e-25
6.18439e-24
2.83485e-25
5.79639e-24
2.0335e-25
5.2943e-24
1.34049e-25
4.66778e-24
7.75108e-26
3.90579e-24
3.53974e-26
2.99705e-24
9.09977e-27
1.9292e-24
7.16482e-25
3.17442e-27
-7.19156e-25
1.22906e-26
-1.93721e-24
2.68756e-26
-3.01007e-24
4.63452e-26
-3.92352e-24
7.00648e-26
-4.68959e-24
9.73909e-26
-5.31972e-24
1.27658e-25
-5.82493e-24
1.60152e-25
-6.21531e-24
1.94149e-25
-6.50027e-24
2.29404e-25
-6.68857e-24
2.66041e-25
-6.78779e-24
3.04055e-25
-6.80613e-24
3.40454e-25
-6.74719e-24
3.75186e-25
-6.61888e-24
4.09274e-25
-6.42808e-24
4.42267e-25
-6.17904e-24
4.7366e-25
-5.87656e-24
5.03161e-25
-5.52552e-24
5.30524e-25
-5.13051e-24
5.55531e-25
-4.69596e-24
5.77985e-25
-4.22617e-24
5.97723e-25
-3.7254e-24
6.14609e-25
-3.19779e-24
6.28527e-25
-2.6475e-24
6.39382e-25
-2.07862e-24
6.4711e-25
-1.49527e-24
6.51667e-25
-9.01567e-25
6.53028e-25
-3.01637e-25
6.51186e-25
3.00373e-25
6.46152e-25
9.00317e-25
6.37956e-25
1.49405e-24
6.26647e-25
2.07744e-24
6.123e-25
2.64637e-24
5.95005e-25
3.19673e-24
5.74888e-25
3.72441e-24
5.52085e-25
4.22529e-24
5.26773e-25
4.69517e-24
4.99143e-25
5.12985e-24
4.69424e-25
5.52498e-24
4.37863e-25
5.87616e-24
4.04762e-25
6.17879e-24
3.70623e-25
6.42799e-24
3.35911e-25
6.61896e-24
2.99596e-25
6.74745e-24
2.61732e-25
6.80656e-24
2.25314e-25
6.7884e-24
1.90365e-25
6.68935e-24
1.56778e-25
6.5012e-24
1.247e-25
6.21642e-24
9.48523e-26
5.82618e-24
6.81313e-26
5.32097e-24
4.50353e-26
4.69083e-24
2.60023e-26
3.9248e-24
1.17469e-26
3.01111e-24
3.00589e-27
1.93799e-24
7.19484e-25
-2.82977e-27
-7.16318e-25
-1.10693e-26
-1.92883e-24
-2.44698e-26
-2.99653e-24
-4.25623e-26
-3.90529e-24
-6.48071e-26
-4.66722e-24
-9.0629e-26
-5.29378e-24
-1.1942e-25
-5.79602e-24
-1.50495e-25
-6.18413e-24
-1.83156e-25
-6.46751e-24
-2.17159e-25
-6.65447e-24
-2.52637e-25
-6.75222e-24
-2.89595e-25
-6.76908e-24
-3.25033e-25
-6.71167e-24
-3.58914e-25
-6.58492e-24
-3.92263e-25
-6.39465e-24
-4.24618e-25
-6.14662e-24
-4.55478e-25
-5.84564e-24
-4.84544e-25
-5.49639e-24
-5.11573e-25
-5.10343e-24
-5.36341e-25
-4.67114e-24
-5.58652e-25
-4.20382e-24
-5.78339e-25
-3.70567e-24
-5.95265e-25
-3.18083e-24
-6.09311e-25
-2.63342e-24
-6.20384e-25
-2.06752e-24
-6.28412e-25
-1.48722e-24
-6.3335e-25
-8.96611e-25
-6.35164e-25
-2.99809e-25
-6.33849e-25
2.99066e-25
-6.29406e-25
8.95878e-25
-6.21864e-25
1.4865e-24
-6.1126e-25
2.06683e-24
-5.97663e-25
2.63276e-24
-5.81158e-25
3.18021e-24
-5.61864e-25
3.7051e-24
-5.39911e-25
4.20331e-24
-5.15464e-25
4.67069e-24
-4.88709e-25
5.10305e-24
-4.59866e-25
5.4961e-24
-4.29177e-25
5.84542e-24
-3.96933e-25
6.14649e-24
-3.63631e-25
6.39462e-24
-3.2973e-25
6.58499e-24
-2.94197e-25
6.71185e-24
-2.57068e-25
6.76935e-24
-2.21336e-25
6.75258e-24
-1.87019e-25
6.65495e-24
-1.54017e-25
6.4681e-24
-1.22465e-25
6.18477e-24
-9.3078e-26
5.79669e-24
-6.67895e-26
5.29457e-24
-4.41192e-26
4.66804e-24
-2.5409e-26
3.90595e-24
-1.14352e-26
2.99716e-24
-2.92947e-27
1.92929e-24
7.16547e-25
-8.89455e-27
-7.07344e-25
-3.45394e-26
-1.903e-24
-7.59897e-26
-2.95489e-24
-1.31738e-25
-3.84936e-24
-2.00077e-25
-4.5987e-24
-2.79194e-25
-5.21449e-24
-3.67225e-25
-5.70783e-24
-4.62358e-25
-6.08884e-24
-5.63045e-25
-6.36667e-24
-6.67587e-25
-6.54978e-24
-7.73479e-25
-6.64619e-24
-8.80334e-25
-6.6621e-24
-9.87087e-25
-6.6048e-24
-1.09193e-24
-6.47997e-24
-1.19362e-24
-6.29286e-24
-1.29147e-24
-6.04867e-24
-1.38461e-24
-5.7524e-24
-1.47223e-24
-5.40869e-24
-1.5536e-24
-5.02198e-24
-1.62808e-24
-4.59659e-24
-1.69509e-24
-4.13674e-24
-1.75416e-24
-3.64655e-24
-1.80485e-24
-3.13009e-24
-1.84681e-24
-2.59141e-24
-1.87978e-24
-2.03452e-24
-1.90353e-24
-1.46344e-24
-1.91794e-24
-8.82183e-25
-1.92292e-24
-2.94819e-25
-1.91844e-24
2.94596e-25
-1.90453e-24
8.8196e-25
-1.88126e-24
1.46322e-24
-1.84876e-24
2.03431e-24
-1.80725e-24
2.59122e-24
-1.75699e-24
3.12991e-24
-1.69832e-24
3.64639e-24
-1.63166e-24
4.1366e-24
-1.5575e-24
4.59648e-24
-1.47641e-24
5.02189e-24
-1.38901e-24
5.40863e-24
-1.29604e-24
5.75237e-24
-1.1983e-24
6.04867e-24
-1.09665e-24
6.29288e-24
-9.91794e-25
6.48002e-24
-8.84939e-25
6.60487e-24
-7.7792e-25
6.66221e-24
-6.71805e-25
6.64634e-24
-5.66942e-25
6.54994e-24
-4.65812e-25
6.36683e-24
-3.70261e-25
6.08906e-24
-2.81835e-25
5.70811e-24
-2.02091e-25
5.21467e-24
-1.33067e-25
4.59886e-24
-7.69129e-26
3.84965e-24
-3.51803e-26
2.95513e-24
-9.11059e-27
1.90317e-24
7.07427e-25
-1.49704e-26
-6.92323e-25
-5.82052e-26
-1.8595e-24
-1.27958e-25
-2.88488e-24
-2.21625e-25
-3.75544e-24
-3.36289e-25
-4.48379e-24
-4.68884e-25
-5.08166e-24
-6.16295e-25
-5.56019e-24
-7.75474e-25
-5.92944e-24
-9.43456e-25
-6.19849e-24
-1.11741e-24
-6.37563e-24
-1.29492e-24
-6.46851e-24
-1.47337e-24
-6.48348e-24
-1.65086e-24
-6.42716e-24
-1.82536e-24
-6.30532e-24
-1.995e-24
-6.12307e-24
-2.15816e-24
-5.88539e-24
-2.31336e-24
-5.59709e-24
-2.45931e-24
-5.26264e-24
-2.5948e-24
-4.88639e-24
-2.7188e-24
-4.47251e-24
-2.83033e-24
-4.02512e-24
-2.92861e-24
-3.5482e-24
-3.01291e-24
-3.04574e-24
-3.08267e-24
-2.5216e-24
-3.13741e-24
-1.97974e-24
-3.17683e-24
-1.424e-24
-3.20064e-24
-8.58345e-25
-3.20877e-24
-2.86684e-25
-3.20113e-24
2.86952e-25
-3.17779e-24
8.58615e-25
-3.13886e-24
1.42427e-24
-3.08457e-24
1.98e-24
-3.01524e-24
2.52185e-24
-2.93136e-24
3.04598e-24
-2.83346e-24
3.54843e-24
-2.72228e-24
4.02534e-24
-2.59859e-24
4.47272e-24
-2.46337e-24
4.88657e-24
-2.31764e-24
5.26279e-24
-2.16261e-24
5.59722e-24
-1.99956e-24
5.88549e-24
-1.82996e-24
6.12314e-24
-1.65544e-24
6.30535e-24
-1.47787e-24
6.42715e-24
-1.29926e-24
6.48342e-24
-1.1215e-24
6.4684e-24
-9.47242e-25
6.37549e-24
-7.78952e-25
6.19834e-24
-6.19299e-25
5.9292e-24
-4.71266e-25
5.55986e-24
-3.38271e-25
5.08145e-24
-2.23249e-25
4.48361e-24
-1.28953e-25
3.75511e-24
-5.85792e-26
2.88465e-24
-1.50867e-26
1.8594e-24
6.92327e-25
-2.12227e-26
-6.70983e-25
-8.22799e-26
-1.79813e-24
-1.80683e-25
-2.78616e-24
-3.12661e-25
-3.62315e-24
-4.7403e-25
-4.32212e-24
-6.60391e-25
-4.89501e-24
-8.67331e-25
-5.35298e-24
-1.09053e-24
-5.70598e-24
-1.32586e-24
-5.9629e-24
-1.56948e-24
-6.13179e-24
-1.81782e-24
-6.21994e-24
-2.06748e-24
-6.2336e-24
-2.31562e-24
-6.17883e-24
-2.55947e-24
-6.06129e-24
-2.79651e-24
-5.88586e-24
-3.02446e-24
-5.65729e-24
-3.24129e-24
-5.38012e-24
-3.44514e-24
-5.05865e-24
-3.63439e-24
-4.69703e-24
-3.80755e-24
-4.29925e-24
-3.9633e-24
-3.86928e-24
-4.10051e-24
-3.41091e-24
-4.2182e-24
-2.92798e-24
-4.31555e-24
-2.42419e-24
-4.39192e-24
-1.90333e-24
-4.44684e-24
-1.36905e-24
-4.48e-24
-8.25168e-25
-4.49122e-24
-2.75448e-25
-4.48046e-24
2.7618e-25
-4.44775e-24
8.25892e-25
-4.39327e-24
1.36975e-24
-4.31733e-24
1.90402e-24
-4.22039e-24
2.42486e-24
-4.10309e-24
2.92862e-24
-3.96624e-24
3.4115e-24
-3.81082e-24
3.86983e-24
-3.63795e-24
4.29974e-24
-3.44896e-24
4.69746e-24
-3.24531e-24
5.059e-24
-3.02865e-24
5.38041e-24
-2.8008e-24
5.65748e-24
-2.5638e-24
5.88598e-24
-2.31994e-24
6.0613e-24
-2.07172e-24
6.17874e-24
-1.82191e-24
6.23339e-24
-1.57338e-24
6.21965e-24
-1.32948e-24
6.13135e-24
-1.09374e-24
5.96234e-24
-8.70166e-25
5.70537e-24
-6.62957e-25
5.35238e-24
-4.75983e-25
4.8942e-24
-3.139e-25
4.32125e-24
-1.81609e-25
3.62256e-24
-8.3012e-26
2.78565e-24
-2.1492e-26
1.79773e-24
6.7082e-25
-2.75446e-26
-6.43345e-25
-1.06864e-25
-1.71842e-24
-2.34467e-25
-2.65818e-24
-4.05358e-25
-3.45189e-24
-6.13952e-25
-4.11317e-24
-8.54468e-25
-4.65415e-24
-1.12117e-24
-5.08595e-24
-1.40844e-24
-5.41839e-24
-1.71102e-24
-5.66003e-24
-2.02396e-24
-5.81857e-24
-2.34278e-24
-5.90085e-24
-2.66321e-24
-5.91293e-24
-2.98144e-24
-5.86037e-24
-3.29404e-24
-5.74848e-24
-3.59786e-24
-5.58183e-24
-3.88997e-24
-5.36499e-24
-4.16783e-24
-5.10209e-24
-4.42902e-24
-4.7973e-24
-4.67151e-24
-4.45439e-24
-4.89334e-24
-4.07731e-24
-5.09291e-24
-3.66959e-24
-5.26866e-24
-3.23506e-24
-5.41944e-24
-2.77712e-24
-5.54408e-24
-2.29949e-24
-5.64188e-24
-1.80548e-24
-5.71211e-24
-1.29878e-24
-5.75452e-24
-7.82738e-25
-5.76877e-24
-2.61198e-25
-5.75493e-24
2.6233e-25
-5.71292e-24
7.83858e-25
-5.6431e-24
1.29989e-24
-5.54568e-24
1.80654e-24
-5.42142e-24
2.30052e-24
-5.27098e-24
2.77809e-24
-5.09556e-24
3.23598e-24
-4.89627e-24
3.67042e-24
-4.67473e-24
4.07806e-24
-4.43245e-24
4.45504e-24
-4.17146e-24
4.79785e-24
-3.89374e-24
5.1025e-24
-3.60175e-24
5.36529e-24
-3.29795e-24
5.58197e-24
-2.98536e-24
5.74848e-24
-2.66706e-24
5.86019e-24
-2.34653e-24
5.91261e-24
-2.02748e-24
5.90033e-24
-1.71432e-24
5.8179e-24
-1.41151e-24
5.65924e-24
-1.12387e-24
5.41741e-24
-8.56563e-25
5.08476e-24
-6.15729e-25
4.65304e-24
-4.06994e-25
4.11217e-24
-2.35478e-25
3.45069e-24
-1.07204e-25
2.65715e-24
-2.76441e-26
1.71781e-24
6.43158e-25
-3.4152e-26
-6.09042e-25
-1.32196e-25
-1.61995e-24
-2.89732e-25
-2.50021e-24
-5.00241e-25
-3.24096e-24
-7.56711e-25
-3.8563e-24
-1.05188e-24
-4.35859e-24
-1.37856e-24
-4.75888e-24
-1.72995e-24
-5.06664e-24
-2.09957e-24
-5.29007e-24
-2.48147e-24
-5.43634e-24
-2.87018e-24
-5.51184e-24
-3.26065e-24
-5.52217e-24
-3.64824e-24
-5.4725e-24
-4.02886e-24
-5.3676e-24
-4.39865e-24
-5.21182e-24
-4.75418e-24
-5.00925e-24
-5.09227e-24
-4.76381e-24
-5.41014e-24
-4.47925e-24
-5.70517e-24
-4.1592e-24
-5.97514e-24
-3.8072e-24
-6.21794e-24
-3.42667e-24
-6.43186e-24
-3.02104e-24
-6.61527e-24
-2.59362e-24
-6.76695e-24
-2.14773e-24
-6.88582e-24
-1.68656e-24
-6.97122e-24
-1.21334e-24
-7.02265e-24
-7.31291e-25
-7.03996e-24
-2.43889e-25
-7.023e-24
2.45354e-25
-6.97191e-24
7.32739e-25
-6.88685e-24
1.21477e-24
-6.76831e-24
1.68793e-24
-6.61693e-24
2.14906e-24
-6.43382e-24
2.59487e-24
-6.22018e-24
3.02222e-24
-5.97763e-24
3.42774e-24
-5.7079e-24
3.80817e-24
-5.41306e-24
4.16002e-24
-5.09536e-24
4.47996e-24
-4.7574e-24
4.76433e-24
-4.40196e-24
5.00962e-24
-4.03222e-24
5.21198e-24
-3.65161e-24
5.3676e-24
-3.26397e-24
5.47227e-24
-2.87339e-24
5.52173e-24
-2.48456e-24
5.51118e-24
-2.10249e-24
5.4355e-24
-1.73253e-24
5.28893e-24
-1.38087e-24
5.06539e-24
-1.05408e-24
4.75758e-24
-7.585e-25
4.35708e-24
-5.01272e-25
3.85457e-24
-2.90562e-25
3.23962e-24
-1.33015e-25
2.49911e-24
-3.45469e-26
1.6191e-24
6.08591e-25
-4.10062e-26
-5.67902e-25
-1.58492e-25
-1.50197e-24
-3.46863e-25
-2.31135e-24
-5.97965e-25
-2.98939e-24
-9.03092e-25
-3.55071e-24
-1.25339e-24
-4.00785e-24
-1.64029e-24
-4.37157e-24
-2.05569e-24
-4.65083e-24
-2.492e-24
-4.85337e-24
-2.9423e-24
-4.98568e-24
-3.40018e-24
-5.05361e-24
-3.85984e-24
-5.06218e-24
-4.31588e-24
-5.01616e-24
-4.76357e-24
-4.91964e-24
-5.19838e-24
-4.77674e-24
-5.6164e-24
-4.59099e-24
-6.01384e-24
-4.36615e-24
-6.38754e-24
-4.10536e-24
-6.73435e-24
-3.81222e-24
-7.05176e-24
-3.48962e-24
-7.33719e-24
-3.1411e-24
-7.58875e-24
-2.76937e-24
-7.80436e-24
-2.37792e-24
-7.98273e-24
-1.96928e-24
-8.12236e-24
-1.54688e-24
-8.22268e-24
-1.11298e-24
-8.28295e-24
-6.71015e-25
-8.30326e-24
-2.23583e-25
-8.28321e-24
2.25289e-25
-8.22322e-24
6.72712e-25
-8.12314e-24
1.11463e-24
-7.98378e-24
1.5485e-24
-7.80563e-24
1.97081e-24
-7.59028e-24
2.3794e-24
-7.3389e-24
2.77071e-24
-7.05371e-24
3.14238e-24
-6.73642e-24
3.4907e-24
-6.38982e-24
3.81322e-24
-6.01621e-24
4.10613e-24
-5.61892e-24
4.3668e-24
-5.20093e-24
4.59137e-24
-4.76622e-24
4.77699e-24
-4.31849e-24
4.91957e-24
-3.86247e-24
5.01593e-24
-3.40273e-24
5.06165e-24
-2.94478e-24
5.05288e-24
-2.49427e-24
4.98461e-24
-2.05794e-24
4.8522e-24
-1.64232e-24
4.64937e-24
-1.25497e-24
4.36982e-24
-9.04409e-25
4.00609e-24
-5.99383e-25
3.5491e-24
-3.47854e-25
2.98764e-24
-1.58784e-25
2.30971e-24
-4.09857e-26
1.5009e-24
5.67583e-25
-4.81849e-26
-5.19538e-25
-1.86084e-25
-1.36353e-24
-4.06448e-25
-2.09045e-24
-6.99279e-25
-2.69604e-24
-1.0539e-24
-3.19559e-24
-1.45984e-24
-3.60141e-24
-1.90708e-24
-3.92386e-24
-2.38623e-24
-4.17125e-24
-2.88872e-24
-4.35045e-24
-3.40662e-24
-4.46738e-24
-3.93278e-24
-4.52707e-24
-4.46056e-24
-4.53406e-24
-4.98403e-24
-4.49235e-24
-5.49762e-24
-4.40574e-24
-5.99644e-24
-4.27763e-24
-6.47579e-24
-4.11138e-24
-6.93169e-24
-3.91001e-24