/*--------------------------------*- C++ -*----------------------------------*\
| =========                 |                                                 |
| \\      /  F ield         | OpenFOAM: The Open Source CFD Toolbox           |
|  \\    /   O peration     | Version:  5.0                                   |
|   \\  /    A nd           | Web:      www.OpenFOAM.org                      |
|    \\/     M anipulation  |                                                 |
\*---------------------------------------------------------------------------*/
FoamFile
{
    version     2.0;
    format      ascii;
    class       surfaceScalarField;
    location    "0.9";
    object      phi;
}
// * * * * * * * * * * * * * * * * * * * * * * * * * * * * * * * * * * * * * //

dimensions      [0 3 -1 0 0 0 0];

internalField   nonuniform List<scalar> 
85
(
0.000100749
-2.36899e-20
0.000100749
-1.84149e-19
0.000100749
-1.63453e-19
0.000100749
4.25406e-20
-3.08235e-20
0.000100749
-3.65284e-20
0.000100749
-2.35997e-19
0.000100749
2.68092e-20
0.000100749
2.85449e-19
-3.04443e-20
0.000100749
8.2532e-20
0.000100749
-2.67476e-19
0.000100749
-8.48339e-20
0.000100749
3.16107e-19
-9.32284e-20
0.000100749
1.42158e-19
0.000100749
-2.32687e-19
0.000100749
-8.86892e-20
0.000100749
4.96737e-19
-8.79237e-20
0.000100749
1.93679e-19
0.000100749
-3.02403e-19
0.000100749
-9.56936e-20
0.000100749
6.49892e-19
-6.85782e-20
0.000100749
1.90301e-19
0.000100749
-2.62922e-19
0.000100749
-1.9522e-19
0.000100749
6.30739e-19
-5.03424e-20
0.000100749
1.67035e-19
0.000100749
-2.02141e-19
0.000100749
-4.54846e-19
0.000100749
9.0166e-19
-8.91874e-20
0.000100749
1.56125e-19
0.000100749
-1.73899e-19
0.000100749
-5.26283e-19
0.000100749
9.25162e-19
-1.91313e-19
0.000100749
1.34182e-19
0.000100749
-1.21652e-19
0.000100749
-4.6972e-19
0.000100749
9.63881e-19
-1.39745e-19
0.000100749
0.000100749
0.000100749
0.000100749
)
;

boundaryField
{
    top
    {
        type            calculated;
        value           nonuniform List<scalar> 5(1.21165e-19 -1.00943e-19 -6.05191e-19 9.59463e-19 -2.77879e-20);
    }
    bottom
    {
        type            symmetryPlane;
        value           uniform 0;
    }
    inlet
    {
        type            calculated;
        value           nonuniform 0();
    }
    outlet
    {
        type            calculated;
        value           nonuniform List<scalar> 10(0.000100749 0.000100749 0.000100749 0.000100749 0.000100749 0.000100749 0.000100749 0.000100749 0.000100749 0.000100749);
    }
    frontAndBack
    {
        type            empty;
        value           nonuniform 0();
    }
    procBoundary1to0
    {
        type            processor;
        value           nonuniform List<scalar> 10(-0.000100749 -0.000100749 -0.000100749 -0.000100749 -0.000100749 -0.000100749 -0.000100749 -0.000100749 -0.000100749 -0.000100749);
    }
}


// ************************************************************************* //
