/*--------------------------------*- C++ -*----------------------------------*\
| =========                 |                                                 |
| \\      /  F ield         | OpenFOAM: The Open Source CFD Toolbox           |
|  \\    /   O peration     | Version:  5.0                                   |
|   \\  /    A nd           | Web:      www.OpenFOAM.org                      |
|    \\/     M anipulation  |                                                 |
\*---------------------------------------------------------------------------*/
FoamFile
{
    version     2.0;
    format      ascii;
    class       volScalarField;
    location    "0.9";
    object      shearRate;
}
// * * * * * * * * * * * * * * * * * * * * * * * * * * * * * * * * * * * * * //

dimensions      [0 0 -1 0 0 0 0];

internalField   nonuniform List<scalar> 
50
(
9.35426e-15
2.71818e-14
6.53799e-15
2.66351e-14
2.3466e-14
4.36992e-14
2.60508e-14
4.5657e-15
1.69884e-14
2.38305e-14
2.27436e-14
1.43479e-14
2.19893e-14
2.41359e-14
2.22804e-14
1.52933e-15
6.64498e-14
2.28796e-14
3.15159e-14
8.35409e-15
4.33921e-14
2.47423e-14
4.42027e-14
2.67932e-14
2.31194e-14
2.19998e-14
5.41326e-15
2.63147e-14
1.26235e-14
7.84676e-15
8.67949e-14
8.69628e-14
8.83414e-14
8.84209e-14
1.08653e-13
4.58557e-15
2.27146e-14
2.61794e-14
2.27653e-14
4.44125e-14
4.70044e-16
2.33682e-14
8.70752e-14
2.27249e-14
2.28151e-14
1.08575e-13
1.52213e-13
1.30242e-13
1.73581e-13
1.51967e-13
)
;

boundaryField
{
    top
    {
        type            zeroGradient;
    }
    bottom
    {
        type            symmetryPlane;
    }
    inlet
    {
        type            zeroGradient;
    }
    outlet
    {
        type            zeroGradient;
    }
    frontAndBack
    {
        type            empty;
    }
    procBoundary1to0
    {
        type            processor;
        value           nonuniform List<scalar> 10(2.73436e-14 7.39914e-15 2.41866e-14 4.45226e-14 2.35855e-14 2.32334e-14 6.55728e-14 2.22123e-14 2.28745e-14 8.68123e-14);
    }
}


// ************************************************************************* //
