/*--------------------------------*- C++ -*----------------------------------*\
| =========                 |                                                 |
| \\      /  F ield         | OpenFOAM: The Open Source CFD Toolbox           |
|  \\    /   O peration     | Version:  5.0                                   |
|   \\  /    A nd           | Web:      www.OpenFOAM.org                      |
|    \\/     M anipulation  |                                                 |
\*---------------------------------------------------------------------------*/
FoamFile
{
    version     2.0;
    format      ascii;
    class       volScalarField;
    location    "0.9";
    object      shearRate;
}
// * * * * * * * * * * * * * * * * * * * * * * * * * * * * * * * * * * * * * //

dimensions      [0 0 -1 0 0 0 0];

internalField   nonuniform List<scalar> 
200
(
2.03857e-09
2.03856e-09
2.03857e-09
2.03857e-09
2.03858e-09
2.03858e-09
2.03858e-09
2.03857e-09
2.03858e-09
2.03858e-09
6.10473e-09
6.1047e-09
6.10473e-09
6.1047e-09
6.10472e-09
6.10471e-09
6.10472e-09
6.10471e-09
6.10471e-09
6.10472e-09
1.01372e-08
1.01371e-08
1.01372e-08
1.01371e-08
1.01372e-08
1.01372e-08
1.01372e-08
1.01372e-08
1.01372e-08
1.01372e-08
1.41135e-08
1.41134e-08
1.41135e-08
1.41134e-08
1.41134e-08
1.41134e-08
1.41134e-08
1.41134e-08
1.41134e-08
1.41134e-08
1.80115e-08
1.80113e-08
1.80114e-08
1.80113e-08
1.80114e-08
1.80113e-08
1.80114e-08
1.80113e-08
1.80113e-08
1.80113e-08
2.18092e-08
2.1809e-08
2.18091e-08
2.1809e-08
2.18091e-08
2.1809e-08
2.18091e-08
2.18091e-08
2.18091e-08
2.18091e-08
2.54857e-08
2.54855e-08
2.54856e-08
2.54855e-08
2.54856e-08
2.54855e-08
2.54855e-08
2.54855e-08
2.54855e-08
2.54855e-08
2.90205e-08
2.90201e-08
2.90203e-08
2.90201e-08
2.90203e-08
2.90202e-08
2.90202e-08
2.90202e-08
2.90202e-08
2.90202e-08
3.23938e-08
3.23934e-08
3.23936e-08
3.23934e-08
3.23935e-08
3.23934e-08
3.23935e-08
3.23935e-08
3.23935e-08
3.23934e-08
3.5587e-08
3.55864e-08
3.55867e-08
3.55865e-08
3.55867e-08
3.55865e-08
3.55866e-08
3.55866e-08
3.55866e-08
3.55866e-08
3.85822e-08
3.85816e-08
3.8582e-08
3.85817e-08
3.85819e-08
3.85817e-08
3.85819e-08
3.85818e-08
3.85818e-08
3.85818e-08
4.13629e-08
4.13622e-08
4.13627e-08
4.13623e-08
4.13626e-08
4.13624e-08
4.13625e-08
4.13624e-08
4.13625e-08
4.13624e-08
4.39136e-08
4.39128e-08
4.39133e-08
4.39129e-08
4.39132e-08
4.3913e-08
4.39131e-08
4.3913e-08
4.39131e-08
4.3913e-08
4.62201e-08
4.62191e-08
4.62198e-08
4.62193e-08
4.62196e-08
4.62194e-08
4.62195e-08
4.62194e-08
4.62195e-08
4.62194e-08
4.82694e-08
4.82683e-08
4.82691e-08
4.82685e-08
4.82689e-08
4.82686e-08
4.82688e-08
4.82687e-08
4.82687e-08
4.82687e-08
5.005e-08
5.00487e-08
5.00496e-08
5.00489e-08
5.00494e-08
5.0049e-08
5.00493e-08
5.00491e-08
5.00492e-08
5.00492e-08
5.15518e-08
5.15502e-08
5.15514e-08
5.15505e-08
5.15511e-08
5.15507e-08
5.1551e-08
5.15508e-08
5.15509e-08
5.15509e-08
5.27663e-08
5.27644e-08
5.27658e-08
5.27648e-08
5.27655e-08
5.2765e-08
5.27654e-08
5.27651e-08
5.27653e-08
5.27652e-08
5.3687e-08
5.36848e-08
5.36866e-08
5.36853e-08
5.36862e-08
5.36856e-08
5.3686e-08
5.36857e-08
5.36859e-08
5.36858e-08
5.43094e-08
5.43068e-08
5.43089e-08
5.43075e-08
5.43086e-08
5.43078e-08
5.43083e-08
5.43079e-08
5.43081e-08
5.43081e-08
)
;

boundaryField
{
    top
    {
        type            zeroGradient;
    }
    bottom
    {
        type            symmetryPlane;
    }
    inlet
    {
        type            zeroGradient;
    }
    outlet
    {
        type            zeroGradient;
    }
    frontAndBack
    {
        type            empty;
    }
    procBoundary1to0
    {
        type            processor;
        value           nonuniform List<scalar> 
20
(
2.03856e-09
6.10469e-09
1.01371e-08
1.41134e-08
1.80113e-08
2.1809e-08
2.54854e-08
2.90201e-08
3.23933e-08
3.55864e-08
3.85815e-08
4.13621e-08
4.39126e-08
4.62188e-08
4.82679e-08
5.00482e-08
5.15496e-08
5.27636e-08
5.36839e-08
5.43057e-08
)
;
    }
}


// ************************************************************************* //
