/*--------------------------------*- C++ -*----------------------------------*\
| =========                 |                                                 |
| \\      /  F ield         | OpenFOAM: The Open Source CFD Toolbox           |
|  \\    /   O peration     | Version:  5.0                                   |
|   \\  /    A nd           | Web:      www.OpenFOAM.org                      |
|    \\/     M anipulation  |                                                 |
\*---------------------------------------------------------------------------*/
FoamFile
{
    version     2.0;
    format      ascii;
    class       volScalarField;
    location    "2.4";
    object      p;
}
// * * * * * * * * * * * * * * * * * * * * * * * * * * * * * * * * * * * * * //

dimensions      [0 2 -2 0 0 0 0];

internalField   nonuniform List<scalar> 
50
(
18.9727
17.0204
15.0387
13.0617
11.0864
9.11533
7.14005
5.07166
3.05358
1.02205
19.0398
17.0224
15.0387
13.0598
11.0521
9.11446
7.10645
5.0678
3.05054
0.983093
19.0909
17.0242
15.0387
13.0584
11.0262
9.12017
7.08763
5.06538
3.04773
0.953594
19.0219
17.0224
15.0386
13.059
11.0608
9.09057
7.09127
5.06613
3.04909
1.01824
18.8038
17.016
15.0389
13.0621
11.1698
8.99522
7.10193
5.06927
3.05615
1.22917
)
;

boundaryField
{
    top
    {
        type            zeroGradient;
    }
    bottom
    {
        type            symmetryPlane;
    }
    inlet
    {
        type            fixedValue;
        value           uniform 20;
    }
    outlet
    {
        type            fixedValue;
        value           uniform 0;
    }
    frontAndBack
    {
        type            empty;
    }
}


// ************************************************************************* //
