/*--------------------------------*- C++ -*----------------------------------*\
| =========                 |                                                 |
| \\      /  F ield         | OpenFOAM: The Open Source CFD Toolbox           |
|  \\    /   O peration     | Version:  5.0                                   |
|   \\  /    A nd           | Web:      www.OpenFOAM.org                      |
|    \\/     M anipulation  |                                                 |
\*---------------------------------------------------------------------------*/
FoamFile
{
    version     2.0;
    format      ascii;
    class       surfaceScalarField;
    location    "2.4";
    object      phi;
}
// * * * * * * * * * * * * * * * * * * * * * * * * * * * * * * * * * * * * * //

dimensions      [0 3 -1 0 0 0 0];

internalField   nonuniform List<scalar> 
85
(
0.000196883
5.49882e-07
0.000197006
-1.23387e-07
0.000196987
1.94958e-08
0.000196716
2.71309e-07
0.000196645
7.02422e-08
0.00019236
4.28494e-06
0.000187934
4.42616e-06
0.000187258
6.76496e-07
0.000186891
3.66945e-07
3.00887e-07
0.000157829
-1.95871e-07
0.000157696
1.03105e-08
0.000157683
3.18541e-08
0.000157782
1.72584e-07
0.000157435
4.177e-07
0.000158714
3.00504e-06
0.000159524
3.61619e-06
0.000159563
6.37914e-07
0.00015966
2.70237e-07
9.80165e-07
0.000118601
-1.21245e-06
0.000118352
2.59309e-07
0.000118353
3.14904e-08
0.000118559
-3.34455e-08
0.000118224
7.52273e-07
0.000120555
6.73608e-07
0.000122447
1.72499e-06
0.000122801
2.8373e-07
0.00012317
-9.84954e-08
1.61509e-06
7.90647e-05
-1.2839e-06
7.89648e-05
3.59232e-07
7.89837e-05
1.25468e-08
7.909e-05
-1.3965e-07
7.91666e-05
6.75668e-07
8.01935e-05
-3.53404e-07
8.13278e-05
5.90696e-07
8.15689e-05
4.2707e-08
8.18069e-05
-3.36565e-07
1.40454e-06
3.92681e-05
3.96273e-05
3.96399e-05
3.95002e-05
4.01759e-05
3.98225e-05
4.04132e-05
4.04559e-05
4.01193e-05
)
;

boundaryField
{
    top
    {
        type            calculated;
        value           uniform 0;
    }
    bottom
    {
        type            symmetryPlane;
        value           uniform 0;
    }
    inlet
    {
        type            calculated;
        value           nonuniform List<scalar> 5(-0.000197433 -0.000157084 -0.000117585 -7.89933e-05 -4.0552e-05);
    }
    outlet
    {
        type            calculated;
        value           nonuniform List<scalar> 5(0.00018659 0.00015898 0.000122535 8.20174e-05 4.15238e-05);
    }
    frontAndBack
    {
        type            empty;
        value           nonuniform 0();
    }
}


// ************************************************************************* //
