/*--------------------------------*- C++ -*----------------------------------*\
| =========                 |                                                 |
| \\      /  F ield         | OpenFOAM: The Open Source CFD Toolbox           |
|  \\    /   O peration     | Version:  5.0                                   |
|   \\  /    A nd           | Web:      www.OpenFOAM.org                      |
|    \\/     M anipulation  |                                                 |
\*---------------------------------------------------------------------------*/
FoamFile
{
    version     2.0;
    format      ascii;
    class       volScalarField;
    location    "2.4";
    object      shearRate;
}
// * * * * * * * * * * * * * * * * * * * * * * * * * * * * * * * * * * * * * //

dimensions      [0 0 -1 0 0 0 0];

internalField   nonuniform List<scalar> 
50
(
5.00715
4.89428
4.90639
4.90762
4.86456
4.89605
3.58637
3.48729
3.43821
3.43213
9.92761
9.81193
9.81797
9.82845
9.75238
9.79702
8.22278
8.092
8.02827
7.97991
9.777
9.86569
9.82658
9.85793
9.78433
9.83015
9.78634
9.75252
9.76561
9.63887
9.71399
9.89512
9.82951
9.8736
9.80071
9.84984
10.247
10.2845
10.3432
10.2074
14.9034
14.8038
14.8212
14.8275
14.8623
14.9097
15.151
15.2573
15.2306
15.3944
)
;

boundaryField
{
    top
    {
        type            zeroGradient;
    }
    bottom
    {
        type            symmetryPlane;
    }
    inlet
    {
        type            zeroGradient;
    }
    outlet
    {
        type            zeroGradient;
    }
    frontAndBack
    {
        type            empty;
    }
}


// ************************************************************************* //
