/*--------------------------------*- C++ -*----------------------------------*\
| =========                 |                                                 |
| \\      /  F ield         | OpenFOAM: The Open Source CFD Toolbox           |
|  \\    /   O peration     | Version:  5.0                                   |
|   \\  /    A nd           | Web:      www.OpenFOAM.org                      |
|    \\/     M anipulation  |                                                 |
\*---------------------------------------------------------------------------*/
FoamFile
{
    version     2.0;
    format      ascii;
    class       volVectorField;
    location    "2.4";
    object      U;
}
// * * * * * * * * * * * * * * * * * * * * * * * * * * * * * * * * * * * * * //

dimensions      [0 1 -1 0 0 0 0];

internalField   nonuniform List<vector> 
50
(
(0.9863 0.00422382 6.14992e-23)
(0.985407 -7.56324e-06 -4.39738e-23)
(0.984029 1.70144e-06 -4.61724e-23)
(0.985895 5.91991e-05 -4.61324e-23)
(0.981216 -0.00205182 3.29823e-23)
(0.98539 0.00241462 9.0801e-23)
(0.939632 0.000871325 1.29196e-23)
(0.937462 0.000170081 -4.53927e-23)
(0.936107 0.000102589 5.20822e-24)
(0.932851 -0.00212491 8.52041e-24)
(0.786165 0.00347655 -8.95561e-37)
(0.789639 -3.96561e-05 4.68477e-23)
(0.787775 3.18994e-05 5.37511e-26)
(0.789593 0.000249019 -3.73618e-23)
(0.786665 -0.00135354 -4.09478e-23)
(0.789888 0.00554151 -3.46578e-23)
(0.796583 0.00403356 -5.94664e-23)
(0.797976 0.000736785 6.57432e-23)
(0.798584 0.000340175 6.5399e-24)
(0.7956 -0.000823558 -1.48583e-22)
(0.589223 -8.73689e-05 -2.58731e-23)
(0.592933 0.000195299 -2.90004e-26)
(0.591313 3.30811e-05 2.75385e-23)
(0.592759 3.51364e-05 -5.57493e-23)
(0.591131 0.000274313 -5.46205e-23)
(0.593518 0.00254883 4.81446e-23)
(0.610735 0.00306316 4.065e-23)
(0.613785 0.000478157 3.03822e-23)
(0.614979 2.75512e-05 -1.2361e-24)
(0.613661 -0.000456751 -5.72663e-23)
(0.395137 -0.00265945 -1.44189e-22)
(0.395014 0.000313462 3.13511e-23)
(0.394713 2.28869e-05 -4.12014e-23)
(0.395278 -9.55437e-05 -1.58896e-23)
(0.395304 0.00143897 -5.21595e-23)
(0.396752 -0.000590906 1.22992e-22)
(0.405163 0.00113934 1.18356e-23)
(0.407879 0.000148296 -2.58044e-24)
(0.407962 -0.000237205 -2.14726e-23)
(0.410064 0.00278353 -1.85507e-22)
(0.200827 -0.0113058 3.64523e-23)
(0.19713 4.40744e-05 1.57045e-23)
(0.198134 1.62398e-05 -4.94729e-23)
(0.197817 -2.82882e-06 -1.50659e-23)
(0.199142 0.00565566 3.40531e-23)
(0.199606 -0.00516693 7.94819e-25)
(0.20087 0.000632854 1.65038e-23)
(0.202409 0.000111799 1.1019e-24)
(0.201254 -1.56475e-05 0)
(0.205541 0.0115105 0)
)
;

boundaryField
{
    top
    {
        type            fixedValue;
        value           uniform (0 0 0);
    }
    bottom
    {
        type            symmetryPlane;
    }
    inlet
    {
        type            pressureInletVelocity;
        value           nonuniform List<vector> 5((0.987165 0 0) (0.785418 0 0) (0.587923 0 0) (0.394966 0 0) (0.20276 0 0));
    }
    outlet
    {
        type            inletOutlet;
        inletValue      uniform (1 0 0);
        value           nonuniform List<vector> 5((0.932851 -0.00212491 8.52041e-24) (0.7956 -0.000823558 -1.48583e-22) (0.613661 -0.000456751 -5.72663e-23) (0.410064 0.00278353 -1.85507e-22) (0.205541 0.0115105 0));
    }
    frontAndBack
    {
        type            empty;
    }
}


// ************************************************************************* //
