/*--------------------------------*- C++ -*----------------------------------*\
| =========                 |                                                 |
| \\      /  F ield         | OpenFOAM: The Open Source CFD Toolbox           |
|  \\    /   O peration     | Version:  5.0                                   |
|   \\  /    A nd           | Web:      www.OpenFOAM.org                      |
|    \\/     M anipulation  |                                                 |
\*---------------------------------------------------------------------------*/
FoamFile
{
    version     2.0;
    format      ascii;
    class       surfaceScalarField;
    location    "4";
    object      phi;
}
// * * * * * * * * * * * * * * * * * * * * * * * * * * * * * * * * * * * * * //

dimensions      [0 3 -1 0 0 0 0];

internalField   nonuniform List<scalar> 
40
(
0.0002
3.27984e-12
0.0002
8.18294e-13
0.0002
-6.87639e-12
0.0002
-2.07698e-12
2.99434e-12
0.000184
3.83035e-12
0.000184
-8.38689e-13
0.000184
-5.58963e-12
0.000184
-6.10587e-12
-1.44889e-12
0.000152
8.34477e-12
0.000152
-1.43129e-12
0.000152
-1.45315e-11
0.000152
-2.13358e-11
-9.27949e-12
0.000104
8.21498e-12
0.000104
-1.99495e-12
0.000104
-1.59454e-11
0.000104
-2.37738e-11
-1.12324e-11
4e-05
4e-05
4e-05
4e-05
)
;

boundaryField
{
    top
    {
        type            calculated;
        value           uniform 0;
    }
    bottom
    {
        type            symmetryPlane;
        value           uniform 0;
    }
    inlet
    {
        type            calculated;
        value           nonuniform 0();
    }
    outlet
    {
        type            calculated;
        value           nonuniform List<scalar> 5(0.0002 0.000184 0.000152 0.000104 4e-05);
    }
    frontAndBack
    {
        type            empty;
        value           nonuniform 0();
    }
    procBoundary1to0
    {
        type            processor;
        value           nonuniform List<scalar> 5(-0.0002 -0.000184 -0.000152 -0.000104 -4e-05);
    }
}


// ************************************************************************* //
