/*--------------------------------*- C++ -*----------------------------------*\
| =========                 |                                                 |
| \\      /  F ield         | OpenFOAM: The Open Source CFD Toolbox           |
|  \\    /   O peration     | Version:  5.0                                   |
|   \\  /    A nd           | Web:      www.OpenFOAM.org                      |
|    \\/     M anipulation  |                                                 |
\*---------------------------------------------------------------------------*/
FoamFile
{
    version     2.0;
    format      ascii;
    class       volVectorField;
    location    "4";
    object      U;
}
// * * * * * * * * * * * * * * * * * * * * * * * * * * * * * * * * * * * * * //

dimensions      [0 1 -1 0 0 0 0];

internalField   nonuniform List<vector> 
25
(
(1 1.72045e-09 6.46481e-23)
(1 1.0019e-10 3.2324e-23)
(1 -3.0847e-09 -3.2324e-23)
(1 -1.39565e-09 7.84444e-29)
(1 9.81353e-10 3.2628e-23)
(0.92 3.47761e-09 -2.79794e-23)
(0.92 -3.22212e-11 -2.57861e-29)
(0.92 -5.96375e-09 5.59588e-23)
(0.92 -3.91136e-09 1.18098e-28)
(0.92 9.68365e-10 -5.64506e-23)
(0.76 6.67195e-09 2.79794e-23)
(0.76 -1.25827e-09 2.79794e-23)
(0.76 -1.10795e-08 2.79794e-23)
(0.76 -1.49439e-08 -1.55073e-29)
(0.76 -5.74111e-09 -2.8262e-23)
(0.52 9.2249e-09 5.59589e-23)
(0.52 -2.05595e-09 2.79794e-23)
(0.52 -1.70548e-08 -1.12908e-28)
(0.52 -2.53103e-08 -2.79794e-23)
(0.52 -1.17124e-08 -9.00247e-29)
(0.2 3.33854e-09 3.98787e-23)
(0.2 -9.29831e-10 1.99393e-23)
(0.2 -6.3367e-09 4.146e-29)
(0.2 -9.94816e-09 0)
(0.2 -4.74936e-09 0)
)
;

boundaryField
{
    top
    {
        type            fixedValue;
        value           uniform (0 0 0);
    }
    bottom
    {
        type            symmetryPlane;
    }
    inlet
    {
        type            pressureInletVelocity;
        value           nonuniform 0();
    }
    outlet
    {
        type            inletOutlet;
        inletValue      uniform (1 0 0);
        value           nonuniform List<vector> 5((1 9.81353e-10 3.2628e-23) (0.92 9.68365e-10 -5.64506e-23) (0.76 -5.74111e-09 -2.8262e-23) (0.52 -1.17124e-08 -9.00247e-29) (0.2 -4.74936e-09 0));
    }
    frontAndBack
    {
        type            empty;
    }
    procBoundary1to0
    {
        type            processor;
        value           nonuniform List<vector> 5((1 8.86677e-10 1.78094e-29) (0.92 2.0347e-09 -2.79794e-23) (0.76 1.33155e-11 -5.59588e-23) (0.52 -2.68386e-09 5.59588e-23) (0.2 -1.19473e-09 3.98787e-23));
    }
}


// ************************************************************************* //
