/*--------------------------------*- C++ -*----------------------------------*\
| =========                 |                                                 |
| \\      /  F ield         | OpenFOAM: The Open Source CFD Toolbox           |
|  \\    /   O peration     | Version:  5.0                                   |
|   \\  /    A nd           | Web:      www.OpenFOAM.org                      |
|    \\/     M anipulation  |                                                 |
\*---------------------------------------------------------------------------*/
FoamFile
{
    version     2.0;
    format      ascii;
    class       volVectorField;
    location    "4";
    object      U;
}
// * * * * * * * * * * * * * * * * * * * * * * * * * * * * * * * * * * * * * //

dimensions      [0 1 -1 0 0 0 0];

internalField   nonuniform List<vector> 
25
(
(0.985368 0.00241454 9.08007e-23)
(0.939611 0.000871303 1.29202e-23)
(0.937442 0.000170077 -4.53927e-23)
(0.936086 0.000102581 5.20772e-24)
(0.93283 -0.00212485 8.52184e-24)
(0.789872 0.00554132 -3.46575e-23)
(0.796566 0.00403346 -5.9465e-23)
(0.797959 0.00073676 6.57432e-23)
(0.798567 0.000340126 6.53927e-24)
(0.795583 -0.000823545 -1.48581e-22)
(0.593506 0.00254877 4.8144e-23)
(0.610722 0.00306307 4.06496e-23)
(0.613773 0.000478131 3.03819e-23)
(0.614966 2.75271e-05 -1.23588e-24)
(0.613648 -0.000456758 -5.72661e-23)
(0.396744 -0.000590879 1.2299e-22)
(0.405155 0.0011393 1.18357e-23)
(0.407871 0.00014828 -2.58052e-24)
(0.407954 -0.000237202 -2.14726e-23)
(0.410056 0.00278345 -1.85502e-22)
(0.199603 -0.0051668 7.95394e-25)
(0.200866 0.000632836 1.65037e-23)
(0.202405 0.00011179 1.10191e-24)
(0.20125 -1.56487e-05 0)
(0.205537 0.0115103 0)
)
;

boundaryField
{
    top
    {
        type            fixedValue;
        value           uniform (0 0 0);
    }
    bottom
    {
        type            symmetryPlane;
    }
    inlet
    {
        type            pressureInletVelocity;
        value           nonuniform 0();
    }
    outlet
    {
        type            inletOutlet;
        inletValue      uniform (1 0 0);
        value           nonuniform List<vector> 5((0.93283 -0.00212485 8.52184e-24) (0.795583 -0.000823545 -1.48581e-22) (0.613648 -0.000456758 -5.72661e-23) (0.410056 0.00278345 -1.85502e-22) (0.205537 0.0115103 0));
    }
    frontAndBack
    {
        type            empty;
    }
    procBoundary1to0
    {
        type            processor;
        value           nonuniform List<vector> 5((0.981194 -0.00205175 3.29813e-23) (0.786648 -0.00135348 -4.09476e-23) (0.591119 0.000274308 -5.46202e-23) (0.395296 0.00143894 -5.21574e-23) (0.199138 0.00565553 3.40529e-23));
    }
}


// ************************************************************************* //
