/*--------------------------------*- C++ -*----------------------------------*\
| =========                 |                                                 |
| \\      /  F ield         | OpenFOAM: The Open Source CFD Toolbox           |
|  \\    /   O peration     | Version:  5.0                                   |
|   \\  /    A nd           | Web:      www.OpenFOAM.org                      |
|    \\/     M anipulation  |                                                 |
\*---------------------------------------------------------------------------*/
FoamFile
{
    version     2.0;
    format      ascii;
    class       volVectorField;
    location    "0.3";
    object      U;
}
// * * * * * * * * * * * * * * * * * * * * * * * * * * * * * * * * * * * * * //

dimensions      [0 1 -1 0 0 0 0];

internalField   nonuniform List<vector> 
25
(
(1.0004 1.14228e-08 6.46486e-23)
(1.0004 -7.05241e-09 3.23245e-23)
(1.0004 2.60549e-10 -3.23244e-23)
(1.0004 -2.76364e-09 -8.09714e-29)
(1.0004 -5.77077e-10 3.26282e-23)
(0.920362 2.85055e-08 -2.79799e-23)
(0.920362 -1.16759e-08 2.17234e-28)
(0.920363 1.21933e-09 5.59593e-23)
(0.920362 -3.28986e-09 -5.78086e-29)
(0.920362 -2.56411e-10 -5.64508e-23)
(0.760288 1.849e-08 2.79797e-23)
(0.760288 4.13749e-10 2.79796e-23)
(0.760288 -7.28513e-09 2.79795e-23)
(0.760288 1.62809e-09 -1.9533e-29)
(0.760288 -3.9563e-10 -2.82622e-23)
(0.520185 8.04986e-09 5.59592e-23)
(0.520186 7.52899e-09 2.79797e-23)
(0.520186 -8.15697e-09 -9.0858e-29)
(0.520186 4.26569e-09 -2.79797e-23)
(0.520186 4.65284e-11 -6.29115e-31)
(0.200064 8.77744e-10 3.9879e-23)
(0.200064 4.39372e-09 1.99395e-23)
(0.200064 -3.6177e-09 2.11437e-29)
(0.200064 2.16092e-09 0)
(0.200064 1.31546e-10 0)
)
;

boundaryField
{
    top
    {
        type            fixedValue;
        value           uniform (0 0 0);
    }
    bottom
    {
        type            symmetryPlane;
    }
    inlet
    {
        type            pressureInletVelocity;
        value           nonuniform 0();
    }
    outlet
    {
        type            inletOutlet;
        inletValue      uniform (1 0 0);
        value           nonuniform List<vector> 5((1.0004 -5.77077e-10 3.26282e-23) (0.920362 -2.56411e-10 -5.64508e-23) (0.760288 -3.9563e-10 -2.82622e-23) (0.520186 4.65284e-11 -6.29115e-31) (0.200064 1.31546e-10 0));
    }
    frontAndBack
    {
        type            empty;
    }
    procBoundary1to0
    {
        type            processor;
        value           nonuniform List<vector> 5((1.0004 -4.85692e-09 2.05308e-29) (0.920363 -1.65411e-08 -2.79797e-23) (0.760289 -2.48332e-08 -5.59594e-23) (0.520186 -2.34634e-08 5.59593e-23) (0.200064 -9.0751e-09 3.98791e-23));
    }
}


// ************************************************************************* //
