/*--------------------------------*- C++ -*----------------------------------*\
| =========                 |                                                 |
| \\      /  F ield         | OpenFOAM: The Open Source CFD Toolbox           |
|  \\    /   O peration     | Version:  5.0                                   |
|   \\  /    A nd           | Web:      www.OpenFOAM.org                      |
|    \\/     M anipulation  |                                                 |
\*---------------------------------------------------------------------------*/
FoamFile
{
    version     2.0;
    format      ascii;
    class       surfaceScalarField;
    location    "3.1";
    object      phi;
}
// * * * * * * * * * * * * * * * * * * * * * * * * * * * * * * * * * * * * * //

dimensions      [0 3 -1 0 0 0 0];

internalField   nonuniform List<scalar> 
85
(
0.000196879
5.49797e-07
0.000197002
-1.23461e-07
0.000196982
1.95001e-08
0.000196711
2.71291e-07
0.000196641
7.02467e-08
0.000192356
4.28483e-06
0.00018793
4.42602e-06
0.000187254
6.76472e-07
0.000186887
3.66942e-07
3.0089e-07
0.000157826
-1.95952e-07
0.000157692
1.02381e-08
0.00015768
3.18511e-08
0.000157779
1.72577e-07
0.000157431
4.177e-07
0.000158711
3.00496e-06
0.000159521
3.6161e-06
0.00015956
6.37893e-07
0.000159656
2.70233e-07
9.80149e-07
0.000118599
-1.21248e-06
0.00011835
2.59252e-07
0.00011835
3.14928e-08
0.000118556
-3.34484e-08
0.000118222
7.52259e-07
0.000120553
6.73596e-07
0.000122444
1.72494e-06
0.000122798
2.83717e-07
0.000123167
-9.84914e-08
1.61505e-06
7.90632e-05
-1.2839e-06
7.89633e-05
3.59207e-07
7.89822e-05
1.25513e-08
7.90884e-05
-1.39651e-07
7.9165e-05
6.75652e-07
8.0192e-05
-3.53388e-07
8.13263e-05
5.90681e-07
8.15673e-05
4.2701e-08
8.18053e-05
-3.36557e-07
1.4045e-06
3.92674e-05
3.96266e-05
3.96391e-05
3.94995e-05
4.01751e-05
3.98218e-05
4.04124e-05
4.04551e-05
4.01186e-05
)
;

boundaryField
{
    top
    {
        type            calculated;
        value           uniform 0;
    }
    bottom
    {
        type            symmetryPlane;
        value           uniform 0;
    }
    inlet
    {
        type            calculated;
        value           nonuniform List<scalar> 5(-0.000197428 -0.00015708 -0.000117582 -7.89918e-05 -4.05513e-05);
    }
    outlet
    {
        type            calculated;
        value           nonuniform List<scalar> 5(0.000186586 0.000158977 0.000122532 8.20159e-05 4.15231e-05);
    }
    frontAndBack
    {
        type            empty;
        value           nonuniform 0();
    }
}


// ************************************************************************* //
