/*--------------------------------*- C++ -*----------------------------------*\
| =========                 |                                                 |
| \\      /  F ield         | OpenFOAM: The Open Source CFD Toolbox           |
|  \\    /   O peration     | Version:  5.0                                   |
|   \\  /    A nd           | Web:      www.OpenFOAM.org                      |
|    \\/     M anipulation  |                                                 |
\*---------------------------------------------------------------------------*/
FoamFile
{
    version     2.0;
    format      ascii;
    class       volVectorField;
    location    "3.1";
    object      U;
}
// * * * * * * * * * * * * * * * * * * * * * * * * * * * * * * * * * * * * * //

dimensions      [0 1 -1 0 0 0 0];

internalField   nonuniform List<vector> 
50
(
(0.986277 0.00422367 6.14974e-23)
(0.985385 -7.58918e-06 -4.39737e-23)
(0.984007 1.71555e-06 -4.61724e-23)
(0.985873 5.91842e-05 -4.61324e-23)
(0.981194 -0.00205176 3.29814e-23)
(0.985368 0.00241456 9.0801e-23)
(0.939611 0.000871289 1.29205e-23)
(0.937442 0.000170072 -4.53926e-23)
(0.936087 0.000102594 5.20811e-24)
(0.93283 -0.00212484 8.52124e-24)
(0.786148 0.00347634 -8.9557e-37)
(0.789623 -3.9741e-05 4.6848e-23)
(0.787758 3.18928e-05 5.37579e-26)
(0.789576 0.00024901 -3.73619e-23)
(0.786648 -0.00135349 -4.09478e-23)
(0.789872 0.00554135 -3.46581e-23)
(0.796566 0.00403345 -5.94647e-23)
(0.797959 0.000736761 6.57434e-23)
(0.798567 0.000340168 6.53973e-24)
(0.795583 -0.000823522 -1.4858e-22)
(0.589211 -8.7419e-05 -2.58733e-23)
(0.592921 0.000195233 -2.93753e-26)
(0.5913 3.30829e-05 2.75385e-23)
(0.592747 3.51303e-05 -5.57493e-23)
(0.591119 0.000274306 -5.46205e-23)
(0.593506 0.00254878 4.81441e-23)
(0.610722 0.00306307 4.06497e-23)
(0.613773 0.000478139 3.03821e-23)
(0.614966 2.75546e-05 -1.23598e-24)
(0.613649 -0.000456741 -5.72656e-23)
(0.39513 -0.00265942 -1.44185e-22)
(0.395006 0.000313423 3.1351e-23)
(0.394706 2.28889e-05 -4.12014e-23)
(0.39527 -9.5543e-05 -1.58897e-23)
(0.395296 0.00143894 -5.21572e-23)
(0.396744 -0.000590884 1.2299e-22)
(0.405155 0.00113931 1.18359e-23)
(0.407871 0.000148287 -2.58042e-24)
(0.407954 -0.0002372 -2.14725e-23)
(0.410056 0.00278345 -1.85502e-22)
(0.200824 -0.0113056 3.64524e-23)
(0.197126 4.40559e-05 1.57045e-23)
(0.19813 1.62445e-05 -4.94729e-23)
(0.197813 -2.83575e-06 -1.5066e-23)
(0.199138 0.00565553 3.4053e-23)
(0.199603 -0.0051668 7.9561e-25)
(0.200866 0.000632838 1.65038e-23)
(0.202405 0.000111793 1.10188e-24)
(0.20125 -1.5641e-05 0)
(0.205537 0.0115103 0)
)
;

boundaryField
{
    top
    {
        type            fixedValue;
        value           uniform (0 0 0);
    }
    bottom
    {
        type            symmetryPlane;
    }
    inlet
    {
        type            pressureInletVelocity;
        value           nonuniform List<vector> 5((0.987142 0 0) (0.785401 0 0) (0.587912 0 0) (0.394959 0 0) (0.202756 0 0));
    }
    outlet
    {
        type            inletOutlet;
        inletValue      uniform (1 0 0);
        value           nonuniform List<vector> 5((0.93283 -0.00212484 8.52124e-24) (0.795583 -0.000823522 -1.4858e-22) (0.613649 -0.000456741 -5.72656e-23) (0.410056 0.00278345 -1.85502e-22) (0.205537 0.0115103 0));
    }
    frontAndBack
    {
        type            empty;
    }
}


// ************************************************************************* //
