/*--------------------------------*- C++ -*----------------------------------*\
| =========                 |                                                 |
| \\      /  F ield         | OpenFOAM: The Open Source CFD Toolbox           |
|  \\    /   O peration     | Version:  5.0                                   |
|   \\  /    A nd           | Web:      www.OpenFOAM.org                      |
|    \\/     M anipulation  |                                                 |
\*---------------------------------------------------------------------------*/
FoamFile
{
    version     2.0;
    format      ascii;
    class       volScalarField;
    location    "0.6";
    object      shearRate;
}
// * * * * * * * * * * * * * * * * * * * * * * * * * * * * * * * * * * * * * //

dimensions      [0 0 -1 0 0 0 0];

internalField   nonuniform List<scalar> 
50
(
1.32854e-14
1.96859e-14
2.21575e-14
2.20185e-14
2.20888e-14
1.08917e-14
2.82338e-14
2.18927e-14
8.84015e-15
2.16975e-14
1.18895e-14
2.85207e-14
3.67465e-15
2.34342e-14
8.36991e-15
4.50901e-14
1.8833e-14
2.19932e-14
4.87604e-15
2.3032e-14
2.60089e-14
2.75689e-14
2.21119e-14
2.2116e-14
2.17705e-14
2.56998e-14
1.75077e-14
9.40877e-15
3.2974e-15
6.40216e-15
4.57525e-14
1.65824e-14
1.22226e-14
3.28952e-15
3.32201e-15
4.41307e-14
2.52353e-14
2.42296e-14
2.18274e-14
3.377e-15
2.37069e-14
2.21485e-14
8.21771e-15
1.80006e-15
3.41306e-15
6.53531e-14
6.61942e-14
9.12324e-15
4.37252e-14
6.51146e-14
)
;

boundaryField
{
    top
    {
        type            zeroGradient;
    }
    bottom
    {
        type            symmetryPlane;
    }
    inlet
    {
        type            zeroGradient;
    }
    outlet
    {
        type            zeroGradient;
    }
    frontAndBack
    {
        type            empty;
    }
    procBoundary1to0
    {
        type            processor;
        value           nonuniform List<scalar> 10(2.28038e-14 2.99063e-15 9.58365e-15 4.37794e-14 2.20702e-14 4.96868e-15 4.35137e-14 2.23292e-14 7.35832e-15 2.19781e-14);
    }
}


// ************************************************************************* //
