/*--------------------------------*- C++ -*----------------------------------*\
| =========                 |                                                 |
| \\      /  F ield         | OpenFOAM: The Open Source CFD Toolbox           |
|  \\    /   O peration     | Version:  5.0                                   |
|   \\  /    A nd           | Web:      www.OpenFOAM.org                      |
|    \\/     M anipulation  |                                                 |
\*---------------------------------------------------------------------------*/
FoamFile
{
    version     2.0;
    format      ascii;
    class       volScalarField;
    location    "0.6";
    object      shearRate;
}
// * * * * * * * * * * * * * * * * * * * * * * * * * * * * * * * * * * * * * //

dimensions      [0 0 -1 0 0 0 0];

internalField   nonuniform List<scalar> 
200
(
1.49517e-06
1.49516e-06
1.49517e-06
1.49516e-06
1.49516e-06
1.49516e-06
1.49516e-06
1.49516e-06
1.49516e-06
1.49516e-06
4.47744e-06
4.47741e-06
4.47743e-06
4.47741e-06
4.47742e-06
4.47741e-06
4.47742e-06
4.47742e-06
4.47742e-06
4.47742e-06
7.435e-06
7.43495e-06
7.43498e-06
7.43495e-06
7.43497e-06
7.43496e-06
7.43497e-06
7.43496e-06
7.43497e-06
7.43497e-06
1.03514e-05
1.03513e-05
1.03513e-05
1.03513e-05
1.03513e-05
1.03513e-05
1.03513e-05
1.03513e-05
1.03513e-05
1.03513e-05
1.32103e-05
1.32102e-05
1.32102e-05
1.32102e-05
1.32102e-05
1.32102e-05
1.32102e-05
1.32102e-05
1.32102e-05
1.32102e-05
1.59957e-05
1.59955e-05
1.59956e-05
1.59956e-05
1.59956e-05
1.59956e-05
1.59956e-05
1.59956e-05
1.59956e-05
1.59956e-05
1.86922e-05
1.8692e-05
1.86921e-05
1.8692e-05
1.86921e-05
1.8692e-05
1.8692e-05
1.8692e-05
1.8692e-05
1.8692e-05
2.12847e-05
2.12844e-05
2.12846e-05
2.12845e-05
2.12845e-05
2.12845e-05
2.12845e-05
2.12845e-05
2.12845e-05
2.12845e-05
2.37588e-05
2.37585e-05
2.37587e-05
2.37585e-05
2.37586e-05
2.37586e-05
2.37586e-05
2.37586e-05
2.37586e-05
2.37586e-05
2.61008e-05
2.61004e-05
2.61006e-05
2.61005e-05
2.61006e-05
2.61005e-05
2.61006e-05
2.61005e-05
2.61005e-05
2.61005e-05
2.82976e-05
2.82972e-05
2.82975e-05
2.82973e-05
2.82974e-05
2.82973e-05
2.82974e-05
2.82973e-05
2.82973e-05
2.82973e-05
3.03371e-05
3.03366e-05
3.03369e-05
3.03367e-05
3.03368e-05
3.03367e-05
3.03368e-05
3.03367e-05
3.03368e-05
3.03367e-05
3.22079e-05
3.22073e-05
3.22077e-05
3.22074e-05
3.22076e-05
3.22074e-05
3.22075e-05
3.22075e-05
3.22075e-05
3.22075e-05
3.38995e-05
3.38988e-05
3.38993e-05
3.38989e-05
3.38992e-05
3.3899e-05
3.38991e-05
3.38991e-05
3.38991e-05
3.38991e-05
3.54026e-05
3.54017e-05
3.54023e-05
3.54019e-05
3.54022e-05
3.5402e-05
3.54021e-05
3.5402e-05
3.54021e-05
3.54021e-05
3.67085e-05
3.67075e-05
3.67083e-05
3.67077e-05
3.67081e-05
3.67078e-05
3.6708e-05
3.67079e-05
3.6708e-05
3.67079e-05
3.781e-05
3.78088e-05
3.78097e-05
3.78091e-05
3.78095e-05
3.78092e-05
3.78094e-05
3.78093e-05
3.78094e-05
3.78093e-05
3.87007e-05
3.86993e-05
3.87004e-05
3.86996e-05
3.87002e-05
3.86998e-05
3.87001e-05
3.86999e-05
3.87e-05
3.87e-05
3.9376e-05
3.93744e-05
3.93757e-05
3.93748e-05
3.93754e-05
3.9375e-05
3.93753e-05
3.93751e-05
3.93752e-05
3.93752e-05
3.98325e-05
3.98306e-05
3.98321e-05
3.9831e-05
3.98318e-05
3.98313e-05
3.98317e-05
3.98314e-05
3.98316e-05
3.98315e-05
)
;

boundaryField
{
    top
    {
        type            zeroGradient;
    }
    bottom
    {
        type            symmetryPlane;
    }
    inlet
    {
        type            zeroGradient;
    }
    outlet
    {
        type            zeroGradient;
    }
    frontAndBack
    {
        type            empty;
    }
    procBoundary1to0
    {
        type            processor;
        value           nonuniform List<scalar> 
20
(
1.49516e-06
4.4774e-06
7.43494e-06
1.03513e-05
1.32101e-05
1.59955e-05
1.8692e-05
2.12844e-05
2.37585e-05
2.61004e-05
2.82971e-05
3.03365e-05
3.22071e-05
3.38986e-05
3.54015e-05
3.67072e-05
3.78084e-05
3.86988e-05
3.93737e-05
3.98298e-05
)
;
    }
}


// ************************************************************************* //
