/*--------------------------------*- C++ -*----------------------------------*\
| =========                 |                                                 |
| \\      /  F ield         | OpenFOAM: The Open Source CFD Toolbox           |
|  \\    /   O peration     | Version:  5.0                                   |
|   \\  /    A nd           | Web:      www.OpenFOAM.org                      |
|    \\/     M anipulation  |                                                 |
\*---------------------------------------------------------------------------*/
FoamFile
{
    version     2.0;
    format      ascii;
    class       volVectorField;
    location    "0.6";
    object      U;
}
// * * * * * * * * * * * * * * * * * * * * * * * * * * * * * * * * * * * * * //

dimensions      [0 1 -1 0 0 0 0];

internalField   nonuniform List<vector> 
25
(
(1 -4.19275e-09 6.46481e-23)
(1 -1.51599e-09 3.23241e-23)
(1 1.00008e-09 -3.23241e-23)
(1 -2.64507e-09 -6.01129e-29)
(1 -5.60146e-09 3.26281e-23)
(0.920004 -1.23934e-08 -2.79794e-23)
(0.920003 -2.26228e-09 5.5802e-29)
(0.920004 3.04387e-09 5.59589e-23)
(0.920004 -5.22636e-09 -1.2242e-28)
(0.920003 -1.13832e-08 -5.64504e-23)
(0.760003 -1.53855e-08 2.79793e-23)
(0.760003 3.78014e-09 2.79794e-23)
(0.760003 9.84889e-09 2.79794e-23)
(0.760003 5.56651e-09 3.11538e-29)
(0.760003 -3.02418e-09 -2.82621e-23)
(0.520002 -1.07735e-08 5.59588e-23)
(0.520002 1.03415e-08 2.79795e-23)
(0.520002 1.72041e-08 1.4331e-28)
(0.520002 1.9562e-08 -2.79794e-23)
(0.520002 7.78712e-09 1.13287e-28)
(0.200001 -3.47076e-09 3.98787e-23)
(0.200001 5.35359e-09 1.99394e-23)
(0.200001 8.38819e-09 -4.98707e-29)
(0.200001 1.0337e-08 0)
(0.200001 4.90586e-09 0)
)
;

boundaryField
{
    top
    {
        type            fixedValue;
        value           uniform (0 0 0);
    }
    bottom
    {
        type            symmetryPlane;
    }
    inlet
    {
        type            pressureInletVelocity;
        value           nonuniform 0();
    }
    outlet
    {
        type            inletOutlet;
        inletValue      uniform (1 0 0);
        value           nonuniform List<vector> 5((1 -5.60146e-09 3.26281e-23) (0.920003 -1.13832e-08 -5.64504e-23) (0.760003 -3.02418e-09 -2.82621e-23) (0.520002 7.78712e-09 1.13287e-28) (0.200001 4.90586e-09 0));
    }
    frontAndBack
    {
        type            empty;
    }
    procBoundary1to0
    {
        type            processor;
        value           nonuniform List<vector> 5((1 -2.16457e-10 -2.25809e-29) (0.920004 1.50133e-09 -2.79794e-23) (0.760003 7.74175e-09 -5.59589e-23) (0.520002 1.1837e-08 5.5959e-23) (0.200001 5.48758e-09 3.98787e-23));
    }
}


// ************************************************************************* //
