/*--------------------------------*- C++ -*----------------------------------*\
| =========                 |                                                 |
| \\      /  F ield         | OpenFOAM: The Open Source CFD Toolbox           |
|  \\    /   O peration     | Version:  5.0                                   |
|   \\  /    A nd           | Web:      www.OpenFOAM.org                      |
|    \\/     M anipulation  |                                                 |
\*---------------------------------------------------------------------------*/
FoamFile
{
    version     2.0;
    format      ascii;
    class       volVectorField;
    location    "0.6";
    object      U;
}
// * * * * * * * * * * * * * * * * * * * * * * * * * * * * * * * * * * * * * //

dimensions      [0 1 -1 0 0 0 0];

internalField   nonuniform List<vector> 
50
(
(1.00749 -4.91411e-18 -8.10615e-37)
(1.00749 -5.07863e-17 1.25832e-36)
(1.00749 -2.85929e-17 1.6895e-36)
(1.00749 7.10124e-17 2.87452e-36)
(1.00749 9.09204e-17 -1.93274e-36)
(1.00749 -9.1852e-17 3.97541e-36)
(1.00749 -2.08194e-16 3.63383e-36)
(1.00749 -1.21636e-16 1.39902e-36)
(1.00749 6.0537e-17 4.37325e-49)
(1.00749 1.894e-17 8.37742e-37)
(1.00749 4.13608e-17 -3.39763e-37)
(1.00749 -2.5475e-16 -1.9659e-36)
(1.00749 -1.30759e-16 -2.08945e-37)
(1.00749 1.18943e-16 9.68247e-52)
(1.00749 -5.41542e-17 -5.04952e-36)
(1.00749 2.22293e-16 4.77849e-36)
(1.00749 -3.07464e-16 -1.50804e-37)
(1.00749 -1.78562e-16 1.81692e-36)
(1.00749 2.55403e-16 2.63453e-37)
(1.00749 1.34664e-19 -3.64236e-36)
(1.00749 1.7536e-16 -6.64991e-37)
(1.00749 -4.65556e-16 -1.52621e-37)
(1.00749 -1.58309e-16 -5.45075e-36)
(1.00749 3.29388e-16 0)
(1.00749 6.79737e-17 0)
(1.00749 3.73305e-17 -1.10415e-48)
(1.00749 -5.06922e-16 -3.15003e-49)
(1.00749 -2.08184e-16 -1.45353e-35)
(1.00749 2.87612e-16 0)
(1.00749 1.2736e-16 0)
(1.00749 5.13105e-17 3.25228e-37)
(1.00749 -5.54821e-16 -7.12412e-36)
(1.00749 -3.70716e-16 -4.03719e-36)
(1.00749 3.54607e-16 -5.99945e-36)
(1.00749 1.46789e-16 0)
(1.00749 9.92083e-17 7.26766e-36)
(1.00749 -7.22352e-16 2.90706e-37)
(1.00749 -5.34276e-16 -5.64879e-36)
(1.00749 4.8315e-16 -1.11777e-35)
(1.00749 9.20994e-17 -4.07944e-37)
(1.00749 4.09471e-17 -1.81692e-36)
(1.00749 -8.02068e-16 -9.45654e-50)
(1.00749 -6.62318e-16 3.63383e-36)
(1.00749 4.27586e-16 2.77988e-37)
(1.00749 6.50831e-17 -7.68901e-36)
(1.00749 1.74642e-18 -5.91536e-37)
(1.00749 -7.75243e-16 5.70901e-37)
(1.00749 -5.78133e-16 6.87832e-36)
(1.00749 3.10978e-16 -1.58889e-36)
(1.00749 1.08984e-16 -6.11671e-36)
)
;

boundaryField
{
    top
    {
        type            zeroGradient;
    }
    bottom
    {
        type            symmetryPlane;
    }
    inlet
    {
        type            pressureInletVelocity;
        value           nonuniform 0();
    }
    outlet
    {
        type            inletOutlet;
        inletValue      uniform (1 0 0);
        value           nonuniform List<vector> 10((1.00749 9.09204e-17 -1.93274e-36) (1.00749 1.894e-17 8.37742e-37) (1.00749 -5.41542e-17 -5.04952e-36) (1.00749 1.34664e-19 -3.64236e-36) (1.00749 6.79737e-17 0) (1.00749 1.2736e-16 0) (1.00749 1.46789e-16 0) (1.00749 9.20994e-17 -4.07944e-37) (1.00749 6.50831e-17 -7.68901e-36) (1.00749 1.08984e-16 -6.11671e-36));
    }
    frontAndBack
    {
        type            empty;
    }
    procBoundary1to0
    {
        type            processor;
        value           nonuniform List<vector> 10((1.00749 -3.22345e-17 -1.43726e-36) (1.00749 1.85618e-17 1.65339e-37) (1.00749 1.15229e-16 3.30679e-37) (1.00749 2.80581e-16 -7.5947e-36) (1.00749 4.62054e-16 -7.58744e-36) (1.00749 5.57204e-16 1.58072e-37) (1.00749 6.03381e-16 9.08458e-36) (1.00749 6.59527e-16 -4.79666e-37) (1.00749 7.8127e-16 5.45075e-36) (1.00749 8.26638e-16 2.29277e-36));
    }
}


// ************************************************************************* //
