/*--------------------------------*- C++ -*----------------------------------*\
| =========                 |                                                 |
| \\      /  F ield         | OpenFOAM: The Open Source CFD Toolbox           |
|  \\    /   O peration     | Version:  5.0                                   |
|   \\  /    A nd           | Web:      www.OpenFOAM.org                      |
|    \\/     M anipulation  |                                                 |
\*---------------------------------------------------------------------------*/
FoamFile
{
    version     2.0;
    format      ascii;
    class       surfaceScalarField;
    location    "248";
    object      phi;
}
// * * * * * * * * * * * * * * * * * * * * * * * * * * * * * * * * * * * * * //

dimensions      [0 3 -1 0 0 0 0];

internalField   nonuniform List<scalar> 
3052
(
1.16863e-22
-6.6256e-22
1.12725e-21
-1.02262e-21
3.00326e-21
-1.88784e-21
5.0708e-21
-2.07762e-21
7.37895e-21
-2.31727e-21
1.01312e-20
-2.76012e-21
1.30713e-20
-2.94734e-21
1.61528e-20
-3.08848e-21
1.93833e-20
-3.23725e-21
2.27015e-20
-3.3245e-21
2.60522e-20
-3.35687e-21
2.94072e-20
-3.36088e-21
3.27342e-20
-3.33271e-21
3.59955e-20
-3.2668e-21
3.91608e-20
-3.17073e-21
4.22038e-20
-3.04834e-21
4.50963e-20
-2.89746e-21
4.78164e-20
-2.72494e-21
5.03407e-20
-2.52873e-21
5.26518e-20
-2.31517e-21
5.47295e-20
-2.08139e-21
5.65629e-20
-1.83657e-21
5.81351e-20
-1.5747e-21
5.94326e-20
-1.29965e-21
6.04503e-20
-1.01935e-21
6.11942e-20
-7.45037e-22
6.1637e-20
-4.43439e-22
6.17766e-20
-1.39812e-22
6.16069e-20
1.70038e-22
6.11373e-20
4.70513e-22
6.03689e-20
7.70312e-22
5.93288e-20
1.04282e-21
5.80081e-20
1.32432e-21
5.64213e-20
1.59108e-21
5.45748e-20
1.85137e-21
5.24906e-20
2.08952e-21
5.01714e-20
2.32479e-21
4.76474e-20
2.52985e-21
4.49282e-20
2.72507e-21
4.20399e-20
2.894e-21
3.90028e-20
3.04274e-21
3.58507e-20
3.15753e-21
3.26032e-20
3.25301e-21
2.9297e-20
3.31171e-21
2.59615e-20
3.34113e-21
2.26369e-20
3.3305e-21
1.93566e-20
3.28616e-21
1.61638e-20
3.19892e-21
1.30995e-20
3.07095e-21
1.02118e-20
2.89297e-21
7.54916e-21
2.66849e-21
5.1798e-21
2.37659e-21
3.16326e-21
2.02139e-21
1.52124e-21
1.64826e-21
4.60227e-22
1.06554e-21
4.6087e-22
3.85525e-22
-1.05961e-21
1.35823e-21
-2.03121e-21
2.63697e-21
-3.1977e-21
4.51228e-21
-3.98106e-21
6.87235e-21
-4.7018e-21
9.33821e-21
-5.24831e-21
1.20356e-20
-5.66578e-21
1.49405e-20
-6.01312e-21
1.79448e-20
-6.2605e-21
2.10192e-20
-6.41699e-21
2.41429e-20
-6.49792e-21
2.72727e-20
-6.50733e-21
3.03692e-20
-6.44537e-21
3.34059e-20
-6.31929e-21
3.63556e-20
-6.13565e-21
3.9189e-20
-5.89643e-21
4.1884e-20
-5.60633e-21
4.44172e-20
-5.27099e-21
4.67691e-20
-4.89267e-21
4.89202e-20
-4.47683e-21
5.08559e-20
-4.02647e-21
5.25591e-20
-3.54765e-21
5.40199e-20
-3.04194e-21
5.52318e-20
-2.51646e-21
5.61911e-20
-1.98248e-21
5.68804e-20
-1.43651e-21
5.72971e-20
-8.61174e-22
5.74284e-20
-2.70529e-22
5.72754e-20
3.2526e-22
5.68352e-20
9.1525e-22
5.6123e-20
1.48923e-21
5.51443e-20
2.03056e-21
5.39181e-20
2.56158e-21
5.24422e-20
3.07993e-21
5.07263e-20
3.58143e-21
4.87796e-20
4.0515e-21
4.66244e-20
4.49606e-21
4.42683e-20
4.90226e-21
4.17363e-20
5.27335e-21
3.9047e-20
5.59947e-21
3.62228e-20
5.88281e-21
3.32829e-20
6.11329e-21
3.02607e-20
6.2912e-21
2.71811e-20
6.40766e-21
2.4076e-20
6.46321e-21
2.09746e-20
6.44882e-21
1.79158e-20
6.36279e-21
1.49367e-20
6.19676e-21
1.20774e-20
5.94663e-21
9.38673e-21
5.60225e-21
6.91031e-21
5.1645e-21
4.69172e-21
4.60968e-21
2.81336e-21
3.91987e-21
1.38567e-21
3.08927e-21
4.05891e-22
2.06104e-21
8.67537e-22
1.32902e-22
-1.20308e-21
1.07622e-21
-2.99568e-21
2.39162e-21
-4.5323e-21
4.14924e-21
-5.75529e-21
6.16243e-21
-6.73045e-21
8.46712e-21
-7.5671e-21
1.09854e-20
-8.19696e-21
1.3655e-20
-8.69484e-21
1.64369e-20
-9.05373e-21
1.9294e-20
-9.28467e-21
2.21877e-20
-9.40173e-21
2.50823e-20
-9.41167e-21
2.79523e-20
-9.32466e-21
3.07675e-20
-9.1435e-21
3.34994e-20
-8.87595e-21
3.61241e-20
-8.52902e-21
3.86208e-20
-8.11019e-21
4.09661e-20
-7.62291e-21
4.31435e-20
-7.07577e-21
4.51353e-20
-6.47381e-21
4.69282e-20
-5.82361e-21
4.85067e-20
-5.12979e-21
4.98624e-20
-4.40036e-21
5.09852e-20
-3.64145e-21
5.18647e-20
-2.86316e-21
5.24895e-20
-2.06198e-21
5.28632e-20
-1.23455e-21
5.29808e-20
-3.87007e-22
5.28423e-20
4.6589e-22
5.24497e-20
1.31066e-21
5.18083e-20
2.1347e-21
5.09121e-20
2.93153e-21
4.97737e-20
3.70557e-21
4.8404e-20
4.4559e-21
4.68161e-20
5.17642e-21
4.50152e-20
5.85998e-21
4.30188e-20
6.50057e-21
4.08387e-20
7.09084e-21
3.84943e-20
7.62663e-21
3.60007e-20
8.10206e-21
3.33835e-20
8.50943e-21
3.0662e-20
8.84448e-21
2.78617e-20
9.10155e-21
2.50059e-20
9.27389e-21
2.21267e-20
9.35311e-21
1.92528e-20
9.33436e-21
1.64177e-20
9.20945e-21
1.36567e-20
8.96887e-21
1.10105e-20
8.60709e-21
8.51346e-21
8.11097e-21
6.23043e-21
7.45803e-21
4.21132e-21
6.6458e-21
2.49057e-21
5.64961e-21
1.16088e-21
4.43699e-21
3.05732e-22
2.92429e-21
1.17387e-21
2.37484e-22
-1.44396e-21
1.01498e-21
-3.78215e-21
2.13876e-21
-5.66372e-21
3.68095e-21
-7.3049e-21
5.56165e-21
-8.61796e-21
7.64897e-21
-9.66092e-21
9.94766e-21
-1.05016e-20
1.23987e-20
-1.11511e-20
1.49509e-20
-1.16103e-20
1.75725e-20
-1.19104e-20
2.02347e-20
-1.20679e-20
2.29021e-20
-1.20827e-20
2.55415e-20
-1.19675e-20
2.813e-20
-1.17349e-20
3.06433e-20
-1.13918e-20
3.3059e-20
-1.09467e-20
3.53548e-20
-1.04076e-20
3.75137e-20
-9.78298e-21
3.95175e-20
-9.08049e-21
4.13509e-20
-8.30769e-21
4.29993e-20
-7.47247e-21
4.44521e-20
-6.58277e-21
4.56983e-20
-5.64666e-21
4.67287e-20
-4.6717e-21
4.75322e-20
-3.6663e-21
4.8103e-20
-2.63209e-21
4.84414e-20
-1.57208e-21
4.85493e-20
-4.93685e-22
4.84271e-20
5.8924e-22
4.80725e-20
1.66655e-21
4.74852e-20
2.72285e-21
4.66659e-20
3.75152e-21
4.56231e-20
4.74879e-21
4.43644e-20
5.71514e-21
4.29014e-20
6.64019e-21
4.12438e-20
7.51861e-21
3.94059e-20
8.33987e-21
3.73994e-20
9.09932e-21
3.52416e-20
9.78696e-21
3.29497e-20
1.03971e-20
3.0541e-20
1.09221e-20
2.80354e-20
1.13545e-20
2.54574e-20
1.16845e-20
2.28308e-20
1.19058e-20
2.01807e-20
1.2009e-20
1.75357e-20
1.19852e-20
1.49281e-20
1.18236e-20
1.23898e-20
1.15154e-20
9.9581e-21
1.10448e-20
7.68151e-21
1.03957e-20
5.59187e-21
9.559e-21
3.72959e-21
8.51282e-21
2.19363e-21
7.19857e-21
1.03419e-21
5.60242e-21
2.94667e-22
3.67545e-21
1.46902e-21
2.91315e-22
-1.73712e-21
8.56359e-22
-4.34787e-21
1.93374e-21
-6.74227e-21
3.30073e-21
-8.67356e-21
4.96054e-21
-1.02803e-20
6.85396e-21
-1.15571e-20
8.93598e-21
-1.25863e-20
1.11542e-20
-1.33716e-20
1.3475e-20
-1.39332e-20
1.58671e-20
-1.43044e-20
1.82906e-20
-1.44931e-20
2.07179e-20
-1.45114e-20
2.31249e-20
-1.43756e-20
2.54861e-20
-1.40968e-20
2.7778e-20
-1.3684e-20
2.99806e-20
-1.31494e-20
3.20745e-20
-1.25012e-20
3.40426e-20
-1.17507e-20
3.58691e-20
-1.09063e-20
3.75403e-20
-9.97825e-21
3.90434e-20
-8.97479e-21
4.03676e-20
-7.90626e-21
4.15021e-20
-6.78041e-21
4.24393e-20
-5.60807e-21
4.31698e-20
-4.39587e-21
4.36903e-20
-3.15154e-21
4.3999e-20
-1.87964e-21
4.40974e-20
-5.91002e-22
4.39844e-20
7.03154e-22
4.3662e-20
1.98949e-21
4.31285e-20
3.25641e-21
4.2385e-20
4.4946e-21
4.14349e-20
5.69807e-21
4.02892e-20
6.85977e-21
3.89561e-20
7.9722e-21
3.74469e-20
9.02694e-21
3.57709e-20
1.00152e-20
3.39429e-20
1.09273e-20
3.19747e-20
1.17557e-20
2.98831e-20
1.24902e-20
2.76856e-20
1.31217e-20
2.54022e-20
1.36407e-20
2.30505e-20
1.40394e-20
2.06544e-20
1.43057e-20
1.82378e-20
1.44297e-20
1.58274e-20
1.44004e-20
1.34507e-20
1.42054e-20
1.11427e-20
1.38276e-20
8.93702e-21
1.32576e-20
6.86133e-21
1.24781e-20
4.97201e-21
1.1452e-20
3.33258e-21
1.01624e-20
1.9409e-21
8.59444e-21
8.78116e-22
6.67842e-21
2.10784e-22
4.34612e-21
1.68015e-21
1.73781e-22
-1.90934e-21
7.74928e-22
-4.94692e-21
1.69109e-21
-7.65709e-21
2.92082e-21
-9.90328e-21
4.39352e-21
-1.17539e-20
6.08538e-21
-1.32505e-20
7.94488e-21
-1.44476e-20
9.93196e-21
-1.53606e-20
1.20168e-20
-1.60198e-20
1.4166e-20
-1.64551e-20
1.63471e-20
-1.66755e-20
1.8535e-20
-1.67004e-20
2.07049e-20
-1.65462e-20
2.28329e-20
-1.62253e-20
2.48996e-20
-1.57508e-20
2.68851e-20
-1.51348e-20
2.8773e-20
-1.43889e-20
3.05471e-20
-1.35244e-20
3.21937e-20
-1.25524e-20
3.36993e-20
-1.14834e-20
3.50536e-20
-1.03285e-20
3.62457e-20
-9.09771e-21
3.72676e-20
-7.80168e-21
3.81108e-20
-6.45052e-21
3.87695e-20
-5.05378e-21
3.92388e-20
-3.61996e-21
3.95182e-20
-2.15808e-21
3.96068e-20
-6.78535e-22
3.95049e-20
8.05791e-22
3.92126e-20
2.28238e-21
3.87306e-20
3.73869e-21
3.80607e-20
5.16437e-21
3.72075e-20
6.55081e-21
3.6177e-20
7.88957e-21
3.4977e-20
9.17151e-21
3.36167e-20
1.03866e-20
3.21066e-20
1.15251e-20
3.04577e-20
1.25764e-20
2.86838e-20
1.35304e-20
2.67984e-20
1.4377e-20
2.48171e-20
1.51053e-20
2.27561e-20
1.57045e-20
2.06354e-20
1.61633e-20
1.8475e-20
1.64697e-20
1.62972e-20
1.66117e-20
1.41263e-20
1.65756e-20
1.19901e-20
1.6346e-20
9.91389e-21
1.59098e-20
7.93027e-21
1.52457e-20
6.08597e-21
1.43274e-20
4.40427e-21
1.31419e-20
2.91051e-21
1.16591e-20
1.69665e-21
9.81656e-21
7.95175e-22
7.5813e-21
2.26223e-22
4.92329e-21
1.90665e-21
1.57559e-22
-2.06684e-21
6.84981e-22
-5.4734e-21
1.48375e-21
-8.45568e-21
2.55206e-21
-1.09721e-20
3.84344e-21
-1.30465e-20
5.329e-21
-1.47379e-20
6.96698e-21
-1.60878e-20
8.72482e-21
-1.71208e-20
1.05719e-20
-1.78693e-20
1.24753e-20
-1.83608e-20
1.44101e-20
-1.86123e-20
1.63524e-20
-1.86444e-20
1.8279e-20
-1.84741e-20
2.01698e-20
-1.81172e-20
2.20062e-20
-1.7588e-20
2.37709e-20
-1.69001e-20
2.54486e-20
-1.60671e-20
2.70254e-20
-1.51016e-20
2.84886e-20
-1.40159e-20
2.98268e-20
-1.28217e-20
3.10299e-20
-1.15316e-20
3.20889e-20
-1.01567e-20
3.29962e-20
-8.70883e-21
3.37448e-20
-7.1988e-21
3.43296e-20
-5.63808e-21
3.47468e-20
-4.03662e-21
3.49952e-20
-2.40578e-21
3.50745e-20
-7.5715e-22
3.49844e-20
8.9669e-22
3.47251e-20
2.54254e-21
3.4297e-20
4.1675e-21
3.37021e-20
5.75993e-21
3.29439e-20
7.30951e-21
3.20282e-20
8.80584e-21
3.09618e-20
1.02385e-20
2.97527e-20
1.15964e-20
2.84104e-20
1.28684e-20
2.69448e-20
1.40433e-20
2.53676e-20
1.51094e-20
2.36914e-20
1.60555e-20
2.193e-20
1.68694e-20
2.00987e-20
1.75389e-20
1.82145e-20
1.8051e-20
1.62955e-20
1.83926e-20
1.43619e-20
1.85493e-20
1.24356e-20
1.85064e-20
1.05393e-20
1.82472e-20
8.70202e-21
1.77511e-20
6.95393e-21
1.69993e-20
5.31476e-21
1.59726e-20
3.82886e-21
1.46307e-20
2.55222e-21
1.29417e-20
1.48258e-21
1.08885e-20
6.65342e-22
8.40786e-21
1.62859e-22
5.42577e-21
2.06966e-21
1.61624e-22
-2.22814e-21
5.83715e-22
-5.89695e-21
1.27228e-21
-9.1454e-21
2.18683e-21
-1.1888e-20
3.30362e-21
-1.4165e-20
4.58966e-21
-1.60261e-20
6.00815e-21
-1.75089e-20
7.53266e-21
-1.86481e-20
9.13714e-21
-1.94766e-20
1.0793e-20
-2.00192e-20
1.24779e-20
-2.02995e-20
1.41697e-20
-2.03383e-20
1.5849e-20
-2.01552e-20
1.74976e-20
-1.97673e-20
1.90988e-20
-1.91907e-20
2.0638e-20
-1.84405e-20
2.21016e-20
-1.75318e-20
2.34771e-20
-1.6478e-20
2.47535e-20
-1.52929e-20
2.59207e-20
-1.39896e-20
2.69701e-20
-1.25813e-20
2.78936e-20
-1.10805e-20
2.86844e-20
-9.4998e-21
2.93371e-20
-7.85148e-21
2.9847e-20
-6.14789e-21
3.02114e-20
-4.40077e-21
3.04284e-20
-2.62236e-21
3.04973e-20
-8.25377e-22
3.04182e-20
9.76633e-22
3.01915e-20
2.77037e-21
2.98177e-20
4.54249e-21
2.92986e-20
6.28034e-21
2.86376e-20
7.972e-21
2.78393e-20
9.60574e-21
2.69095e-20
1.11699e-20
2.58553e-20
1.26523e-20
2.46847e-20
1.40409e-20
2.34064e-20
1.53237e-20
2.20304e-20
1.64878e-20
2.05678e-20
1.75207e-20
1.9031e-20
1.84091e-20
1.74335e-20
1.91396e-20
1.579e-20
1.9698e-20
1.41166e-20
2.00696e-20
1.2431e-20
2.02389e-20
1.07531e-20
2.01885e-20
9.10492e-21
1.98994e-20
7.50782e-21
1.93531e-20
5.98581e-21
1.85254e-20
4.57614e-21
1.73856e-20
3.30033e-21
1.59119e-20
2.17264e-21
1.40719e-20
1.25803e-21
1.18074e-20
5.85136e-22
9.07904e-21
1.6014e-22
5.856e-21
2.22991e-21
1.32451e-22
-2.36189e-21
4.87699e-22
-6.25382e-21
1.06647e-21
-9.72582e-21
1.83815e-21
-1.26613e-20
2.78073e-21
-1.51094e-20
3.86427e-21
-1.71117e-20
5.06338e-21
-1.87102e-20
6.35473e-21
-1.99418e-20
7.71387e-21
-2.08381e-20
9.11867e-21
-2.14263e-20
1.05499e-20
-2.17327e-20
1.19882e-20
-2.17784e-20
1.34162e-20
-2.15848e-20
1.48183e-20
-2.11709e-20
1.61808e-20
-2.05544e-20
1.74908e-20
-1.97515e-20
1.87362e-20
-1.8778e-20
1.99065e-20
-1.76491e-20
2.09925e-20
-1.63795e-20
2.19857e-20
-1.49833e-20
2.28783e-20
-1.34743e-20
2.36638e-20
-1.18663e-20
2.43364e-20
-1.01727e-20
2.48918e-20
-8.40703e-21
2.53258e-20
-6.58195e-21
2.5636e-20
-4.71082e-21
2.58207e-20
-2.8067e-21
2.58793e-20
-8.83311e-22
2.58116e-20
1.04525e-21
2.56179e-20
2.96513e-21
2.52994e-20
4.86221e-21
2.48576e-20
6.72347e-21
2.42952e-20
8.53593e-21
2.3616e-20
1.02865e-20
2.28251e-20
1.19625e-20
2.19282e-20
1.35511e-20
2.09318e-20
1.50393e-20
1.98438e-20
1.64138e-20
1.86727e-20
1.76612e-20
1.74279e-20
1.87679e-20
1.61199e-20
1.97197e-20
1.47603e-20
2.05019e-20
1.33618e-20
2.10993e-20
1.19387e-20
2.14958e-20
1.05063e-20
2.16745e-20
9.08106e-21
2.1617e-20
7.68112e-21
2.13032e-20
6.32738e-21
2.07099e-20
5.0431e-21
1.9813e-20
3.84579e-21
1.85873e-20
2.76245e-21
1.6997e-20
1.83319e-21
1.50033e-20
1.0645e-21
1.25771e-20
4.79389e-22
9.67022e-21
1.17262e-22
6.2161e-21
2.34721e-21
1.00491e-22
-2.4624e-21
3.95329e-22
-6.55068e-21
8.67401e-22
-1.01996e-20
1.49741e-21
-1.32928e-20
2.26454e-21
-1.5878e-20
3.1479e-21
-1.79965e-20
4.12874e-21
-1.96926e-20
5.18647e-21
-2.10012e-20
6.30059e-21
-2.19538e-20
7.45352e-21
-2.25806e-20
8.62805e-21
-2.29086e-20
9.8089e-21
-2.29604e-20
1.09819e-20
-2.27589e-20
1.21344e-20
-2.23242e-20
1.32543e-20
-2.1675e-20
1.4331e-20
-2.08289e-20
1.53548e-20
-1.98023e-20
1.63172e-20
-1.86119e-20
1.72101e-20
-1.72726e-20
1.80264e-20
-1.57999e-20
1.87601e-20
-1.42082e-20
1.94059e-20
-1.25123e-20
1.99588e-20
-1.07259e-20
2.0415e-20
-8.86334e-21
2.07715e-20
-6.93845e-21
2.10264e-20
-4.96546e-21
2.11782e-20
-2.95814e-21
2.12266e-20
-9.31074e-22
2.11711e-20
1.10158e-21
2.10118e-20
3.12524e-21
2.07495e-20
5.12556e-21
2.03857e-20
7.08832e-21
1.9923e-20
8.99975e-21
1.93644e-20
1.08463e-20
1.87138e-20
1.26144e-20
1.7976e-20
1.42904e-20
1.71566e-20
1.58603e-20
1.62617e-20
1.73103e-20
1.52986e-20
1.86262e-20
1.42749e-20
1.97934e-20
1.31994e-20
2.07971e-20
1.20817e-20
2.16216e-20
1.09324e-20
2.22507e-20
9.76331e-21
2.26672e-20
8.5868e-21
2.28535e-20
7.41707e-21
2.27894e-20
6.26981e-21
2.24527e-20
5.16088e-21
2.18216e-20
4.10694e-21
2.08696e-20
3.13045e-21
1.95648e-20
2.25343e-21
1.78765e-20
1.48455e-21
1.57741e-20
8.5698e-22
1.32059e-20
3.947e-22
1.01292e-20
1.06946e-22
6.50735e-21
2.45417e-21
8.04483e-23
-2.544e-21
3.0755e-22
-6.77864e-21
6.71493e-22
-1.05644e-20
1.15887e-21
-1.3781e-20
1.75376e-21
-1.64737e-20
2.44164e-21
-1.86851e-20
3.20549e-21
-2.04573e-20
4.02868e-21
-2.18252e-20
4.8963e-21
-2.28222e-20
5.79474e-21
-2.34798e-20
6.71079e-21
-2.38253e-20
7.63193e-21
-2.38821e-20
8.54703e-21
-2.36744e-20
9.44655e-21
-2.32242e-20
1.03209e-20
-2.25497e-20
1.11616e-20
-2.16697e-20
1.19609e-20
-2.06019e-20
1.27122e-20
-1.93633e-20
1.34093e-20
-1.79698e-20
1.40467e-20
-1.64374e-20
1.46197e-20
-1.47811e-20
1.51234e-20
-1.30161e-20
1.55549e-20
-1.11573e-20
1.59111e-20
-9.21945e-21
1.61898e-20
-7.21694e-21
1.6389e-20
-5.16433e-21
1.65076e-20
-3.07628e-21
1.65448e-20
-9.67708e-22
1.65006e-20
1.14631e-21
1.63758e-20
3.25072e-21
1.61707e-20
5.33131e-21
1.58864e-20
7.37329e-21
1.55248e-20
9.36225e-21
1.50882e-20
1.12838e-20
1.45798e-20
1.31237e-20
1.40035e-20
1.48678e-20
1.33635e-20
1.65015e-20
1.26646e-20
1.80105e-20
1.19123e-20
1.93797e-20
1.11128e-20
2.05943e-20
1.0273e-20
2.16384e-20
9.40022e-21
2.24958e-20
8.503e-21
2.31495e-20
7.59074e-21
2.35811e-20
6.67344e-21
2.37724e-20
5.76152e-21
2.37029e-20
4.86723e-21
2.33492e-20
4.00327e-21
2.2687e-20
3.18566e-21
2.16879e-20
2.42784e-21
2.03251e-20
1.74048e-21
1.85645e-20
1.14933e-21
1.63644e-20
6.68282e-22
1.36874e-20
3.04636e-22
1.04966e-20
7.72614e-23
6.73142e-21
2.53138e-21
5.68997e-23
-2.6004e-21
2.1852e-22
-6.94081e-21
4.78406e-22
-1.08246e-20
8.26738e-22
-1.41296e-20
1.25232e-21
-1.68993e-20
1.74409e-21
-1.9177e-20
2.28968e-21
-2.1003e-20
2.87804e-21
-2.24137e-20
3.49913e-21
-2.34434e-20
4.14194e-21
-2.41228e-20
4.7975e-21
-2.44809e-20
5.45666e-21
-2.45413e-20
6.11224e-21
-2.43301e-20
6.75657e-21
-2.38685e-20
7.38283e-21
-2.31759e-20
7.98484e-21
-2.22717e-20
8.55752e-21
-2.11744e-20
9.09556e-21
-1.99012e-20
9.59486e-21
-1.8469e-20
1.00512e-20
-1.68935e-20
1.04614e-20
-1.51911e-20
1.08223e-20
-1.33768e-20
1.11316e-20
-1.14663e-20
1.13866e-20
-9.47407e-21
1.15859e-20
-7.41578e-21
1.17281e-20
-5.306e-21
1.18127e-20
-3.16049e-21
1.18393e-20
-9.9394e-22
1.18077e-20
1.17827e-21
1.17176e-20
3.34114e-21
1.15699e-20
5.47942e-21
1.13656e-20
7.57808e-21
1.11061e-20
9.62228e-21
1.07931e-20
1.15974e-20
1.04287e-20
1.34889e-20
1.00155e-20
1.52816e-20
9.55661e-21
1.69612e-20
9.05567e-21
1.85123e-20
8.51655e-21
1.99198e-20
7.94368e-21
2.11681e-20
7.34195e-21
2.2241e-20
6.71674e-21
2.3122e-20
6.07399e-21
2.37933e-20
5.42073e-21
2.42355e-20
4.76445e-21
2.44299e-20
4.11177e-21
2.43569e-20
3.47266e-21
2.3989e-20
2.85639e-21
2.33042e-20
2.27103e-21
2.22748e-20
1.72745e-21
2.08678e-20
1.24302e-21
1.9049e-20
8.24008e-22
1.67848e-20
4.73186e-22
1.40368e-20
2.12625e-22
1.07528e-20
5.15624e-23
6.89441e-21
2.58288e-21
3.44212e-23
-2.63544e-21
1.31896e-22
-7.03747e-21
2.88966e-22
-1.09812e-20
4.98826e-22
-1.43389e-20
7.55313e-22
-1.71552e-20
1.05099e-21
-1.94721e-20
1.37885e-21
-2.13303e-20
1.73257e-21
-2.27669e-20
2.1064e-21
-2.38168e-20
2.49414e-21
-2.45101e-20
2.88674e-21
-2.48731e-20
3.28241e-21
-2.49366e-20
3.67763e-21
-2.47249e-20
4.06549e-21
-2.4256e-20
4.44158e-21
-2.35517e-20
4.80319e-21
-2.26329e-20
5.14715e-21
-2.15181e-20
5.47052e-21
-2.02242e-20
5.77046e-21
-1.87686e-20
6.04481e-21
-1.71675e-20
6.29121e-21
-1.54371e-20
6.50808e-21
-1.35931e-20
6.69348e-21
-1.1651e-20
6.8465e-21
-9.62635e-21
6.96602e-21
-7.5346e-21
7.05146e-21
-5.39089e-21
7.10192e-21
-3.21064e-21
7.11727e-21
-1.00912e-21
7.09749e-21
1.19811e-21
7.04288e-21
3.39584e-21
6.95374e-21
5.56867e-21
6.8305e-21
7.70152e-21
6.67382e-21
9.77921e-21
6.48494e-21
1.17866e-20
6.26528e-21
1.37089e-20
6.01639e-21
1.5531e-20
5.74013e-21
1.72379e-20
5.43855e-21
1.88143e-20
5.11413e-21
2.02447e-20
4.76968e-21
2.15131e-20
4.40804e-21
2.26032e-20
4.03247e-21
2.34981e-20
3.64595e-21
2.41804e-20
3.25248e-21
2.46296e-20
2.85801e-21
2.48249e-20
2.46796e-21
2.47474e-20
2.08361e-21
2.43742e-20
1.71206e-21
2.36759e-20
1.36227e-21
2.26234e-20
1.04173e-21
2.11895e-20
7.46212e-22
1.93441e-20
4.87569e-22
1.704e-20
2.86572e-22
1.42376e-20
1.36814e-22
1.09041e-20
3.87951e-23
6.98815e-21
2.62155e-21
1.2052e-23
-2.64644e-21
4.58668e-23
-7.07036e-21
1.00752e-22
-1.10348e-20
1.73119e-22
-1.441e-20
2.60373e-22
-1.72412e-20
3.60576e-22
-1.9571e-20
4.71125e-22
-2.14396e-20
5.89766e-22
-2.28844e-20
7.1366e-22
-2.39397e-20
8.42074e-22
-2.46375e-20
9.75534e-22
-2.50057e-20
1.11393e-21
-2.50742e-20
1.24659e-21
-2.48568e-20
1.37321e-21
-2.43819e-20
1.49747e-21
-2.36752e-20
1.61778e-21
-2.27526e-20
1.73224e-21
-2.16319e-20
1.83983e-21
-2.03312e-20
1.93961e-21
-1.88677e-20
2.03092e-21
-1.72581e-20
2.1128e-21
-1.55182e-20
2.18485e-21
-1.36643e-20
2.2466e-21
-1.17118e-20
2.29765e-21
-9.6765e-21
2.33717e-21
-7.57337e-21
2.36511e-21
-5.41835e-21
2.38119e-21
-3.22647e-21
2.3855e-21
-1.01342e-21
2.37794e-21
1.20562e-21
2.35867e-21
3.415e-21
2.32783e-21
5.59946e-21
2.28569e-21
7.74362e-21
2.23258e-21
9.83237e-21
2.16865e-21
1.18506e-20
2.09462e-21
1.37831e-20
2.01065e-21
1.56151e-20
1.91778e-21
1.7331e-20
1.81652e-21
1.89158e-20
1.70782e-21
2.03536e-20
1.59258e-21
2.16285e-20
1.472e-21
2.2724e-20
1.34769e-21
2.36226e-20
1.22167e-21
2.43065e-20
1.08989e-21
2.47614e-20
9.52411e-22
2.49624e-20
8.20812e-22
2.48791e-20
6.94635e-22
2.44997e-20
5.74784e-22
2.37952e-20
4.58807e-22
2.27398e-20
3.45834e-22
2.12999e-20
2.52195e-22
1.94359e-20
1.76233e-22
1.71169e-20
9.84018e-23
1.43117e-20
3.67263e-23
1.09606e-20
1.68556e-24
7.02357e-21
2.62309e-21
-7.82372e-24
-2.63878e-21
-3.76651e-23
-7.03787e-21
-8.60145e-23
-1.09842e-20
-1.52118e-22
-1.43416e-20
-2.33393e-22
-1.71578e-20
-3.28306e-22
-1.9474e-20
-4.34714e-22
-2.13312e-20
-5.49766e-22
-2.27675e-20
-6.71047e-22
-2.38167e-20
-7.97658e-22
-2.45093e-20
-9.29752e-22
-2.48721e-20
-1.06715e-21
-2.49353e-20
-1.19925e-21
-2.47233e-20
-1.32555e-21
-2.42543e-20
-1.4498e-21
-2.35498e-20
-1.57018e-21
-2.26311e-20
-1.685e-21
-2.15161e-20
-1.79307e-21
-2.02222e-20
-1.89353e-21
-1.87663e-20
-1.98568e-21
-1.7165e-20
-2.06838e-21
-1.54346e-20
-2.14115e-21
-1.35905e-20
-2.20352e-21
-1.16485e-20
-2.25535e-21
-9.6238e-21
-2.29609e-21
-7.53195e-21
-2.32572e-21
-5.38827e-21
-2.34389e-21
-3.20805e-21
-2.35058e-21
-1.00663e-21
-2.34564e-21
1.20068e-21
-2.32923e-21
3.39853e-21
-2.30134e-21
5.57148e-21
-2.26211e-21
7.70428e-21
-2.21157e-21
9.78173e-21
-2.15031e-21
1.17892e-20
-2.0787e-21
1.37114e-20
-1.99729e-21
1.55335e-20
-1.90656e-21
1.72401e-20
-1.80723e-21
1.88162e-20
-1.70007e-21
2.02462e-20
-1.58618e-21
2.15143e-20
-1.46639e-21
2.26039e-20
-1.34256e-21
2.34984e-20
-1.21642e-21
2.418e-20
-1.08408e-21
2.46287e-20
-9.45636e-22
2.48233e-20
-8.12746e-22
2.47451e-20
-6.84746e-22
2.43714e-20
-5.63596e-22
2.3673e-20
-4.46542e-22
2.26197e-20
-3.31418e-22
2.11848e-20
-2.3728e-22
1.93403e-20
-1.65598e-22
1.70392e-20
-8.86372e-23
1.42339e-20
-2.98375e-23
1.0901e-20
-1.15895e-24
6.98969e-21
2.62174e-21
-3.41508e-23
-2.60293e-21
-1.24099e-22
-6.94504e-21
-2.74079e-22
-1.08309e-20
-4.7745e-22
-1.41351e-20
-7.28071e-22
-1.69041e-20
-1.01899e-21
-1.91801e-20
-1.34316e-21
-2.10043e-20
-1.69394e-21
-2.24141e-20
-2.06553e-21
-2.34427e-20
-2.45157e-21
-2.4121e-20
-2.84287e-21
-2.44787e-20
-3.23784e-21
-2.45384e-20
-3.6325e-21
-2.43268e-20
-4.01994e-21
-2.38651e-20
-4.39587e-21
-2.31722e-20
-4.75752e-21
-2.22679e-20
-5.10176e-21
-2.11704e-20
-5.42542e-21
-1.98971e-20
-5.72588e-21
-1.84646e-20
-6.00049e-21
-1.68892e-20
-6.24757e-21
-1.51864e-20
-6.46521e-21
-1.33718e-20
-6.65204e-21
-1.14608e-20
-6.80641e-21
-9.4686e-21
-6.92749e-21
-7.41031e-21
-7.01431e-21
-5.30091e-21
-7.06672e-21
-3.15535e-21
-7.08417e-21
-9.88878e-22
-7.06692e-21
1.18348e-21
-7.0145e-21
3.34616e-21
-6.92771e-21
5.48451e-21
-6.80681e-21
7.58326e-21
-6.65309e-21
9.62771e-21
-6.46684e-21
1.16028e-20
-6.24994e-21
1.34941e-20
-6.00312e-21
1.52864e-20
-5.7291e-21
1.69656e-20
-5.42934e-21
1.8516e-20
-5.10666e-21
1.99229e-20
-4.76325e-21
2.11703e-20
-4.40263e-21
2.22424e-20
-4.02742e-21
2.31223e-20
-3.64104e-21
2.37925e-20
-3.247e-21
2.42333e-20
-2.85168e-21
2.44266e-20
-2.46029e-21
2.43527e-20
-2.07475e-21
2.39835e-20
-1.70059e-21
2.32967e-20
-1.3488e-21
2.22677e-20
-1.03098e-21
2.08625e-20
-7.34862e-22
1.90403e-20
-4.69596e-22
1.67744e-20
-2.75187e-22
1.40329e-20
-1.36964e-22
1.07564e-20
-4.43759e-23
6.8955e-21
2.57711e-21
-5.16738e-23
-2.55073e-21
-2.08497e-22
-6.78309e-21
-4.62559e-22
-1.05722e-20
-8.05903e-22
-1.37873e-20
-1.22651e-21
-1.64792e-20
-1.71355e-21
-1.86891e-20
-2.25588e-21
-2.04582e-20
-2.84219e-21
-2.18244e-20
-3.46129e-21
-2.28203e-20
-4.10289e-21
-2.34764e-20
-4.75757e-21
-2.38211e-20
-5.41603e-21
-2.38773e-20
-6.07092e-21
-2.36693e-20
-6.71517e-21
-2.32185e-20
-7.34114e-21
-2.25439e-20
-7.94336e-21
-2.16636e-20
-8.51582e-21
-2.05958e-20
-9.05433e-21
-1.93568e-20
-9.55372e-21
-1.79634e-20
-1.00109e-20
-1.64305e-20
-1.04216e-20
-1.47742e-20
-1.07833e-20
-1.3009e-20
-1.10928e-20
-1.115e-20
-1.13491e-20
-9.21164e-21
-1.15496e-20
-7.209e-21
-1.16938e-20
-5.15631e-21
-1.17798e-20
-3.06872e-21
-1.18082e-20
-9.60382e-22
-1.1778e-20
1.15355e-21
-1.16906e-20
3.25862e-21
-1.15454e-20
5.33938e-21
-1.1344e-20
7.38151e-21
-1.10867e-20
9.37034e-21
-1.07762e-20
1.12917e-20
-1.04137e-20
1.31314e-20
-1.0003e-20
1.4875e-20
-9.54603e-21
1.6508e-20
-9.04702e-21
1.8016e-20
-8.50916e-21
1.93841e-20
-7.93765e-21
2.05973e-20
-7.33663e-21
2.164e-20
-6.71205e-21
2.24958e-20
-6.06925e-21
2.31478e-20
-5.41573e-21
2.35778e-20
-4.75862e-21
2.37673e-20
-4.10463e-21
2.36956e-20
-3.46333e-21
2.33404e-20
-2.84709e-21
2.26782e-20
-2.26161e-21
2.16766e-20
-1.71009e-21
2.03097e-20
-1.22699e-21
1.85546e-20
-8.21799e-22
1.63599e-20
-4.66731e-22
1.36757e-20
-1.98048e-22
1.04836e-20
-4.25433e-23
6.73321e-21
2.53423e-21
-7.99102e-23
-2.46823e-21
-2.97737e-22
-6.55947e-21
-6.55637e-22
-1.02085e-20
-1.13788e-21
-1.32994e-20
-1.72995e-21
-1.58819e-20
-2.41441e-21
-1.79998e-20
-3.17552e-21
-1.96926e-20
-3.99709e-21
-2.09986e-20
-4.8638e-21
-2.19498e-20
-5.76124e-21
-2.25754e-20
-6.67666e-21
-2.29024e-20
-7.59715e-21
-2.29537e-20
-8.5121e-21
-2.27516e-20
-9.41123e-21
-2.23166e-20
-1.02854e-20
-2.16673e-20
-1.11258e-20
-2.08207e-20
-1.19251e-20
-1.97943e-20
-1.26764e-20
-1.86034e-20
-1.33736e-20
-1.72644e-20
-1.40112e-20
-1.57911e-20
-1.45844e-20
-1.41997e-20
-1.50892e-20
-1.25029e-20
-1.55214e-20
-1.07169e-20
-1.58785e-20
-8.85376e-21
-1.61576e-20
-6.92942e-21
-1.63577e-20
-4.95568e-21
-1.64773e-20
-2.94879e-21
-1.65167e-20
-9.20724e-22
-1.64745e-20
1.11139e-21
-1.63517e-20
3.13584e-21
-1.61481e-20
5.13559e-21
-1.5866e-20
7.09934e-21
-1.55063e-20
9.01033e-21
-1.50724e-20
1.08576e-20
-1.45661e-20
1.26245e-20
-1.39922e-20
1.43005e-20
-1.33536e-20
1.58686e-20
-1.26566e-20
1.7318e-20
-1.19055e-20
1.86316e-20
-1.11075e-20
1.97977e-20
-1.02682e-20
2.07986e-20
-9.39618e-21
2.16216e-20
-8.4987e-21
2.22479e-20
-7.58633e-21
2.26626e-20
-6.6679e-21
2.28459e-20
-5.7555e-21
2.27809e-20
-4.86037e-21
2.24416e-20
-3.99337e-21
2.18068e-20
-3.17231e-21
2.08548e-20
-2.42318e-21
1.95544e-20
-1.73528e-21
1.78596e-20
-1.12461e-21
1.5749e-20
-6.56099e-22
1.31974e-20
-3.15439e-22
1.01349e-20
-9.58303e-23
6.50973e-21
2.43806e-21
-9.91146e-23
-2.36759e-21
-3.85686e-22
-6.2657e-21
-8.50232e-22
-9.73703e-21
-1.47607e-21
-1.26674e-20
-2.24148e-21
-1.51108e-20
-3.12439e-21
-1.71116e-20
-4.10478e-21
-1.87075e-20
-5.16149e-21
-1.99376e-20
-6.27533e-21
-2.08321e-20
-7.42747e-21
-2.14196e-20
-8.60221e-21
-2.17245e-20
-9.78241e-21
-2.17704e-20
-1.09554e-20
-2.15759e-20
-1.21068e-20
-2.11625e-20
-1.32271e-20
-2.05449e-20
-1.43029e-20
-1.97427e-20
-1.53273e-20
-1.87682e-20
-1.62884e-20
-1.76404e-20
-1.71822e-20
-1.63694e-20
-1.79975e-20
-1.49743e-20
-1.87325e-20
-1.3464e-20
-1.93771e-20
-1.18573e-20
-1.99318e-20
-1.01621e-20
-2.03874e-20
-8.39743e-21
-2.07465e-20
-6.57054e-21
-2.10009e-20
-4.70069e-21
-2.11554e-20
-2.79478e-21
-2.12028e-20
-8.72958e-22
-2.11497e-20
1.05771e-21
-2.09899e-20
2.97631e-21
-2.07309e-20
4.87596e-21
-2.03672e-20
6.73615e-21
-1.99081e-20
8.55069e-21
-1.93496e-20
1.02996e-20
-1.87028e-20
1.1977e-20
-1.79652e-20
1.35629e-20
-1.71492e-20
1.50515e-20
-1.62543e-20
1.64227e-20
-1.5294e-20
1.76696e-20
-1.42698e-20
1.87723e-20
-1.31965e-20
1.9723e-20
-1.20777e-20
2.05011e-20
-1.09296e-20
2.10971e-20
-9.75899e-21
2.149e-20
-8.58319e-21
2.16674e-20
-7.41111e-21
2.16056e-20
-6.2625e-21
2.12901e-20
-5.154e-21
2.06968e-20
-4.10222e-21
1.97962e-20
-3.11307e-21
1.85621e-20
-2.23541e-21
1.69803e-20
-1.49595e-21
1.49976e-20
-8.57393e-22
1.25561e-20
-3.71573e-22
9.64328e-21
-8.60934e-23
6.21707e-21
2.35164e-21
-1.25808e-22
-2.23878e-21
-4.78232e-22
-5.90593e-21
-1.05333e-21
-9.15509e-21
-1.82188e-21
-1.18925e-20
-2.76187e-21
-1.41649e-20
-3.8458e-21
-1.60225e-20
-5.04591e-21
-1.75024e-20
-6.33816e-21
-1.8641e-20
-7.6978e-21
-1.94682e-20
-9.10365e-21
-2.00102e-20
-1.05342e-20
-2.02903e-20
-1.19725e-20
-2.03293e-20
-1.33997e-20
-2.01456e-20
-1.48022e-20
-1.97579e-20
-1.61636e-20
-1.91809e-20
-1.74734e-20
-1.84314e-20
-1.87177e-20
-1.75218e-20
-1.98886e-20
-1.64686e-20
-2.09735e-20
-1.52828e-20
-2.19672e-20
-1.39804e-20
-2.28588e-20
-1.2571e-20
-2.36452e-20
-1.10712e-20
-2.43172e-20
-9.48916e-21
-2.48732e-20
-7.84204e-21
-2.53066e-20
-6.13647e-21
-2.56177e-20
-4.39046e-21
-2.58022e-20
-2.60968e-21
-2.58623e-20
-8.13905e-22
-2.57948e-20
9.90845e-22
-2.56029e-20
2.78341e-21
-2.52847e-20
4.5585e-21
-2.48447e-20
6.29507e-21
-2.42829e-20
7.98945e-21
-2.36057e-20
9.62087e-21
-2.28155e-20
1.11868e-20
-2.19204e-20
1.26661e-20
-2.09251e-20
1.40558e-20
-1.98387e-20
1.53341e-20
-1.86681e-20
1.64983e-20
-1.74243e-20
1.75261e-20
-1.61166e-20
1.84141e-20
-1.47575e-20
1.91396e-20
-1.33592e-20
1.96974e-20
-1.19358e-20
2.00641e-20
-1.05022e-20
2.02318e-20
-9.07643e-21
2.01775e-20
-7.67703e-21
1.98886e-20
-6.3192e-21
1.93341e-20
-5.03079e-21
1.85067e-20
-3.84708e-21
1.73741e-20
-2.76783e-21
1.58918e-20
-1.80378e-21
1.40343e-20
-1.0512e-21
1.17944e-20
-5.01954e-22
9.08656e-21
-1.48642e-22
5.86129e-21
2.20277e-21
-1.507e-22
-2.08632e-21
-5.74028e-22
-5.47537e-21
-1.26097e-21
-8.46177e-21
-2.17896e-21
-1.09684e-20
-3.29697e-21
-1.30413e-20
-4.5823e-21
-1.47316e-20
-6.00254e-21
-1.6077e-20
-7.52952e-21
-1.71089e-20
-9.13344e-21
-1.78596e-20
-1.07903e-20
-1.83488e-20
-1.24746e-20
-1.86019e-20
-1.41673e-20
-1.86327e-20
-1.58449e-20
-1.84649e-20
-1.74939e-20
-1.81058e-20
-1.90932e-20
-1.75792e-20
-2.06337e-20
-1.68886e-20
-2.20944e-20
-1.60595e-20
-2.34713e-20
-1.509e-20
-2.47444e-20
-1.40088e-20
-2.59138e-20
-1.28099e-20
-2.69595e-20
-1.1525e-20
-2.78856e-20
-1.01445e-20
-2.86724e-20
-8.70235e-21
-2.93284e-20
-7.18584e-21
-2.98339e-20
-5.63114e-21
-3.0202e-20
-4.02231e-21
-3.04143e-20
-2.39761e-21
-3.04878e-20
-7.40537e-22
-3.04039e-20
9.06521e-22
-3.01819e-20
2.56101e-21
-2.98035e-20
4.17891e-21
-2.92901e-20
5.78028e-21
-2.86252e-20
7.32225e-21
-2.78335e-20
8.82687e-21
-2.69003e-20
1.02507e-20
-2.58526e-20
1.16157e-20
-2.46778e-20
1.28781e-20
-2.34054e-20
1.40593e-20
-2.20254e-20
1.51159e-20
-2.05681e-20
1.60669e-20
-1.90268e-20
1.6871e-20
-1.74334e-20
1.75447e-20
-1.57852e-20
1.80477e-20
-1.41154e-20
1.83927e-20
-1.24265e-20
1.85416e-20
-1.07513e-20
1.85004e-20
-9.09741e-21
1.82323e-20
-7.50579e-21
1.77415e-20
-5.98655e-21
1.69832e-20
-4.56247e-21
1.59454e-20
-3.28077e-21
1.46106e-20
-2.19605e-21
1.29408e-20
-1.27147e-21
1.08683e-20
-5.57989e-22
8.37164e-21
-1.26542e-22
5.4251e-21
2.07616e-21
-1.71963e-22
-1.91149e-21
-6.74613e-22
-4.96654e-21
-1.47677e-21
-7.65309e-21
-2.54833e-21
-9.89059e-21
-3.84603e-21
-1.17373e-20
-5.33527e-21
-1.32361e-20
-6.97763e-21
-1.44284e-20
-8.73673e-21
-1.53437e-20
-1.05842e-20
-1.60063e-20
-1.24876e-20
-1.64397e-20
-1.44235e-20
-1.66608e-20
-1.63635e-20
-1.66876e-20
-1.82908e-20
-1.65332e-20
-2.01791e-20
-1.62132e-20
-2.20162e-20
-1.57389e-20
-2.37775e-20
-1.51239e-20
-2.54568e-20