/*--------------------------------*- C++ -*----------------------------------*\
| =========                 |                                                 |
| \\      /  F ield         | OpenFOAM: The Open Source CFD Toolbox           |
|  \\    /   O peration     | Version:  5.0                                   |
|   \\  /    A nd           | Web:      www.OpenFOAM.org                      |
|    \\/     M anipulation  |                                                 |
\*---------------------------------------------------------------------------*/
FoamFile
{
    version     2.0;
    format      ascii;
    class       volVectorField;
    location    "248";
    object      U;
}
// * * * * * * * * * * * * * * * * * * * * * * * * * * * * * * * * * * * * * //

dimensions      [0 1 -1 0 0 0 0];

internalField   nonuniform List<vector> 
1568
(
(-1.86046e-14 -1.21863e-13 0)
(1.6196e-13 -1.61856e-13 0)
(7.6015e-13 -4.31692e-13 0)
(1.60454e-12 -4.61293e-13 0)
(2.45381e-12 -4.588e-13 0)
(3.46514e-12 -5.80703e-13 0)
(4.62709e-12 -6.15556e-13 0)
(5.8306e-12 -6.37243e-13 0)
(7.09414e-12 -6.72176e-13 0)
(8.41129e-12 -6.90422e-13 0)
(9.74908e-12 -6.97018e-13 0)
(1.1093e-11 -6.97771e-13 0)
(1.24331e-11 -6.909e-13 0)
(1.3754e-11 -6.76907e-13 0)
(1.50421e-11 -6.57903e-13 0)
(1.62867e-11 -6.32483e-13 0)
(1.74762e-11 -6.01511e-13 0)
(1.8601e-11 -5.66236e-13 0)
(1.96519e-11 -5.26208e-13 0)
(2.06209e-11 -4.81878e-13 0)
(2.15002e-11 -4.33426e-13 0)
(2.22841e-11 -3.82736e-13 0)
(2.29676e-11 -3.27058e-13 0)
(2.35403e-11 -2.58351e-13 0)
(2.40025e-11 -1.85232e-13 0)
(2.43562e-11 -1.21581e-13 0)
(2.4598e-11 -5.937e-14 0)
(2.4715e-11 -1.46769e-14 0)
(2.47085e-11 1.99948e-14 0)
(2.45801e-11 6.3625e-14 0)
(2.43283e-11 1.25259e-13 0)
(2.39654e-11 1.89257e-13 0)
(2.34938e-11 2.63408e-13 0)
(2.29134e-11 3.29377e-13 0)
(2.22244e-11 3.85417e-13 0)
(2.14367e-11 4.34494e-13 0)
(2.05545e-11 4.83326e-13 0)
(1.95838e-11 5.25831e-13 0)
(1.85335e-11 5.66619e-13 0)
(1.74096e-11 6.01341e-13 0)
(1.62218e-11 6.31946e-13 0)
(1.49812e-11 6.55319e-13 0)
(1.36986e-11 6.74605e-13 0)
(1.23845e-11 6.87076e-13 0)
(1.10526e-11 6.93368e-13 0)
(9.71689e-12 6.91101e-13 0)
(8.39211e-12 6.82226e-13 0)
(7.09329e-12 6.64191e-13 0)
(5.83734e-12 6.37935e-13 0)
(4.64195e-12 6.00181e-13 0)
(3.52658e-12 5.52926e-13 0)
(2.51252e-12 4.97196e-13 0)
(1.63326e-12 4.18978e-13 0)
(8.8548e-13 3.51451e-13 0)
(3.43849e-13 2.24139e-13 0)
(4.70542e-14 9.30434e-14 0)
(5.79606e-14 -3.64344e-13 0)
(2.19204e-13 -6.93309e-13 0)
(7.77358e-13 -9.68475e-13 0)
(1.3585e-12 -1.18292e-12 0)
(2.26338e-12 -1.44063e-12 0)
(3.21866e-12 -1.59682e-12 0)
(4.24935e-12 -1.72771e-12 0)
(5.38458e-12 -1.83301e-12 0)
(6.56766e-12 -1.9072e-12 0)
(7.78647e-12 -1.9562e-12 0)
(9.02929e-12 -1.97985e-12 0)
(1.02851e-11 -1.98329e-12 0)
(1.15334e-11 -1.96618e-12 0)
(1.27621e-11 -1.92812e-12 0)
(1.39628e-11 -1.87049e-12 0)
(1.51217e-11 -1.79779e-12 0)
(1.62296e-11 -1.70877e-12 0)
(1.72774e-11 -1.60608e-12 0)
(1.82565e-11 -1.48978e-12 0)
(1.91588e-11 -1.36343e-12 0)
(1.99777e-11 -1.22599e-12 0)
(2.07064e-11 -1.08059e-12 0)
(2.13407e-11 -9.27126e-13 0)
(2.18755e-11 -7.70152e-13 0)
(2.23107e-11 -6.13458e-13 0)
(2.26414e-11 -4.5243e-13 0)
(2.28646e-11 -2.7609e-13 0)
(2.29728e-11 -8.78939e-14 0)
(2.29687e-11 1.05348e-13 0)
(2.2851e-11 2.94288e-13 0)
(2.26183e-11 4.69497e-13 0)
(2.22786e-11 6.28025e-13 0)
(2.18372e-11 7.82185e-13 0)
(2.1297e-11 9.36333e-13 0)
(2.06573e-11 1.08774e-12 0)
(1.9923e-11 1.23131e-12 0)
(1.91012e-11 1.36748e-12 0)
(1.81978e-11 1.49117e-12 0)
(1.72174e-11 1.60492e-12 0)
(1.61715e-11 1.70549e-12 0)
(1.50671e-11 1.79325e-12 0)
(1.39111e-11 1.86409e-12 0)
(1.27155e-11 1.91958e-12 0)
(1.14926e-11 1.95448e-12 0)
(1.02522e-11 1.9709e-12 0)
(9.00775e-12 1.96581e-12 0)
(7.77189e-12 1.93907e-12 0)
(6.56025e-12 1.88789e-12 0)
(5.38819e-12 1.81113e-12 0)
(4.27441e-12 1.70839e-12 0)
(3.23588e-12 1.5768e-12 0)
(2.29028e-12 1.39903e-12 0)
(1.46045e-12 1.19773e-12 0)
(7.9543e-13 9.46269e-13 0)
(3.16878e-13 6.3195e-13 0)
(1.63294e-14 2.69998e-13 0)
(-1.57215e-14 -4.70101e-13 0)
(2.01011e-13 -9.9793e-13 0)
(6.30459e-13 -1.58755e-12 0)
(1.31275e-12 -1.97157e-12 0)
(2.00986e-12 -2.30273e-12 0)
(2.89558e-12 -2.59829e-12 0)
(3.88222e-12 -2.80147e-12 0)
(4.91572e-12 -2.96897e-12 0)
(6.00394e-12 -3.09323e-12 0)
(7.14214e-12 -3.17161e-12 0)
(8.29659e-12 -3.21024e-12 0)
(9.45375e-12 -3.21385e-12 0)
(1.06106e-11 -3.18393e-12 0)
(1.17519e-11 -3.12143e-12 0)
(1.28628e-11 -3.03099e-12 0)
(1.39363e-11 -2.91275e-12 0)
(1.49631e-11 -2.76965e-12 0)
(1.59335e-11 -2.60376e-12 0)
(1.68395e-11 -2.41711e-12 0)
(1.7675e-11 -2.21141e-12 0)
(1.84334e-11 -1.98909e-12 0)
(1.9109e-11 -1.75208e-12 0)
(1.96965e-11 -1.50233e-12 0)
(2.01934e-11 -1.24328e-12 0)
(2.05948e-11 -9.77654e-13 0)
(2.0896e-11 -7.05407e-13 0)
(2.10961e-11 -4.22357e-13 0)
(2.11948e-11 -1.33139e-13 0)
(2.11902e-11 1.59461e-13 0)
(2.10835e-11 4.48114e-13 0)
(2.08765e-11 7.31558e-13 0)
(2.05689e-11 1.00271e-12 0)
(2.01608e-11 1.26817e-12 0)
(1.96579e-11 1.52395e-12 0)
(1.90655e-11 1.7715e-12 0)
(1.8387e-11 2.00357e-12 0)
(1.76258e-11 2.22321e-12 0)
(1.67885e-11 2.42348e-12 0)
(1.58828e-11 2.60618e-12 0)
(1.49129e-11 2.76711e-12 0)
(1.3888e-11 2.90596e-12 0)
(1.28185e-11 3.01915e-12 0)
(1.17118e-11 3.10673e-12 0)
(1.05771e-11 3.16455e-12 0)
(9.42744e-12 3.19199e-12 0)
(8.27359e-12 3.18528e-12 0)
(7.12833e-12 3.14262e-12 0)
(6.00501e-12 3.06077e-12 0)
(4.92002e-12 2.93842e-12 0)
(3.88911e-12 2.76683e-12 0)
(2.92213e-12 2.54757e-12 0)
(2.05894e-12 2.278e-12 0)
(1.31253e-12 1.93212e-12 0)
(6.78861e-13 1.5193e-12 0)
(2.57542e-13 1.0123e-12 0)
(4.13695e-15 4.14836e-13 0)
(-2.99325e-14 -5.24442e-13 0)
(2.49796e-13 -1.39995e-12 0)
(5.87682e-13 -2.02432e-12 0)
(1.12141e-12 -2.64626e-12 0)
(1.82064e-12 -3.1051e-12 0)
(2.61888e-12 -3.46831e-12 0)
(3.50761e-12 -3.76469e-12 0)
(4.45376e-12 -3.9989e-12 0)
(5.45962e-12 -4.16222e-12 0)
(6.50108e-12 -4.26669e-12 0)
(7.55909e-12 -4.32339e-12 0)
(8.62823e-12 -4.32804e-12 0)
(9.6933e-12 -4.28601e-12 0)
(1.07403e-11 -4.2032e-12 0)
(1.17632e-11 -4.08079e-12 0)
(1.27517e-11 -3.92095e-12 0)
(1.36955e-11 -3.72872e-12 0)
(1.45882e-11 -3.50497e-12 0)
(1.54226e-11 -3.25383e-12 0)
(1.61915e-11 -2.97684e-12 0)
(1.68891e-11 -2.678e-12 0)
(1.75104e-11 -2.35878e-12 0)
(1.80513e-11 -2.02366e-12 0)
(1.85075e-11 -1.67366e-12 0)
(1.88752e-11 -1.31476e-12 0)
(1.91504e-11 -9.44062e-13 0)
(1.9332e-11 -5.64507e-13 0)
(1.94211e-11 -1.76789e-13 0)
(1.94182e-11 2.11333e-13 0)
(1.93235e-11 5.98994e-13 0)
(1.9135e-11 9.77538e-13 0)
(1.88528e-11 1.34688e-12 0)
(1.84797e-11 1.70335e-12 0)
(1.80188e-11 2.0504e-12 0)
(1.74731e-11 2.3813e-12 0)
(1.68475e-11 2.69643e-12 0)
(1.61477e-11 2.98927e-12 0)
(1.53773e-11 3.26186e-12 0)
(1.45422e-11 3.50719e-12 0)
(1.36507e-11 3.72529e-12 0)
(1.27092e-11 3.91215e-12 0)
(1.17237e-11 4.06708e-12 0)
(1.07044e-11 4.184e-12 0)
(9.66135e-12 4.26393e-12 0)
(8.60327e-12 4.30034e-12 0)
(7.54116e-12 4.29217e-12 0)
(6.48692e-12 4.23482e-12 0)
(5.45544e-12 4.12457e-12 0)
(4.45571e-12 3.95583e-12 0)
(3.50899e-12 3.72755e-12 0)
(2.63885e-12 3.42857e-12 0)
(1.83682e-12 3.0522e-12 0)
(1.14233e-12 2.58853e-12 0)
(6.10481e-13 2.02809e-12 0)
(2.27919e-13 1.32944e-12 0)
(6.60943e-15 5.33111e-13 0)
(2.77707e-14 -6.36554e-13 0)
(1.7437e-13 -1.61683e-12 0)
(5.26154e-13 -2.51325e-12 0)
(1.0122e-12 -3.20541e-12 0)
(1.62535e-12 -3.79306e-12 0)
(2.34474e-12 -4.2588e-12 0)
(3.14396e-12 -4.63475e-12 0)
(4.00177e-12 -4.92271e-12 0)
(4.91709e-12 -5.12771e-12 0)
(5.86542e-12 -5.26262e-12 0)
(6.82956e-12 -5.33098e-12 0)
(7.8024e-12 -5.33756e-12 0)
(8.77178e-12 -5.28814e-12 0)
(9.72795e-12 -5.18557e-12 0)
(1.0661e-11 -5.03285e-12 0)
(1.15615e-11 -4.83662e-12 0)
(1.24227e-11 -4.59795e-12 0)
(1.3237e-11 -4.32175e-12 0)
(1.39971e-11 -4.0107e-12 0)
(1.4698e-11 -3.66983e-12 0)
(1.53342e-11 -3.3006e-12 0)
(1.59007e-11 -2.90795e-12 0)
(1.63934e-11 -2.49398e-12 0)
(1.68085e-11 -2.0637e-12 0)
(1.71427e-11 -1.618e-12 0)
(1.73932e-11 -1.16113e-12 0)
(1.75589e-11 -6.92519e-13 0)
(1.76403e-11 -2.17423e-13 0)
(1.76373e-11 2.60502e-13 0)
(1.75502e-11 7.34043e-13 0)
(1.73795e-11 1.19986e-12 0)
(1.71239e-11 1.65402e-12 0)
(1.67841e-11 2.0959e-12 0)
(1.63639e-11 2.52199e-12 0)
(1.58672e-11 2.93062e-12 0)
(1.52977e-11 3.31846e-12 0)
(1.46595e-11 3.68242e-12 0)
(1.39576e-11 4.01746e-12 0)
(1.31967e-11 4.32267e-12 0)
(1.23829e-11 4.5931e-12 0)
(1.15233e-11 4.82577e-12 0)
(1.06252e-11 5.0164e-12 0)
(9.69641e-12 5.16386e-12 0)
(8.74437e-12 5.26156e-12 0)
(7.77884e-12 5.30744e-12 0)
(6.81127e-12 5.29657e-12 0)
(5.85077e-12 5.22511e-12 0)
(4.90886e-12 5.08761e-12 0)
(4.00415e-12 4.87996e-12 0)
(3.14688e-12 4.59299e-12 0)
(2.34223e-12 4.21788e-12 0)
(1.63348e-12 3.75093e-12 0)
(1.03504e-12 3.17568e-12 0)
(5.18053e-13 2.46589e-12 0)
(1.86984e-13 1.61184e-12 0)
(3.27618e-16 6.3308e-13 0)
(-2.48984e-15 -7.35862e-13 0)
(1.61914e-13 -1.86615e-12 0)
(4.56488e-13 -2.89171e-12 0)
(8.96796e-13 -3.7315e-12 0)
(1.43848e-12 -4.42308e-12 0)
(2.07956e-12 -4.98037e-12 0)
(2.78995e-12 -5.42979e-12 0)
(3.5612e-12 -5.77009e-12 0)
(4.38321e-12 -6.01301e-12 0)
(5.23304e-12 -6.17458e-12 0)
(6.09991e-12 -6.25747e-12 0)
(6.97674e-12 -6.26666e-12 0)
(7.85114e-12 -6.20802e-12 0)
(8.71296e-12 -6.08705e-12 0)
(9.5536e-12 -5.9093e-12 0)
(1.03658e-11 -5.67806e-12 0)
(1.11423e-11 -5.39785e-12 0)
(1.18762e-11 -5.0736e-12 0)
(1.25615e-11 -4.70907e-12 0)
(1.31931e-11 -4.30778e-12 0)
(1.37664e-11 -3.87456e-12 0)
(1.42765e-11 -3.41306e-12 0)
(1.472e-11 -2.92719e-12 0)
(1.5094e-11 -2.4206e-12 0)
(1.53949e-11 -1.89696e-12 0)
(1.56205e-11 -1.35918e-12 0)
(1.57705e-11 -8.10559e-13 0)
(1.5844e-11 -2.5482e-13 0)
(1.58413e-11 3.02668e-13 0)
(1.57626e-11 8.57663e-13 0)
(1.56076e-11 1.40437e-12 0)
(1.5377e-11 1.93878e-12 0)
(1.50718e-11 2.4583e-12 0)
(1.46941e-11 2.96039e-12 0)
(1.42473e-11 3.4412e-12 0)
(1.37344e-11 3.89698e-12 0)
(1.31591e-11 4.32401e-12 0)
(1.2526e-11 4.71816e-12 0)
(1.18402e-11 5.07565e-12 0)
(1.11068e-11 5.39306e-12 0)
(1.03317e-11 5.66621e-12 0)
(9.5217e-12 5.89105e-12 0)
(8.6834e-12 6.06292e-12 0)
(7.8248e-12 6.17764e-12 0)
(6.95514e-12 6.23107e-12 0)
(6.0826e-12 6.21818e-12 0)
(5.21764e-12 6.13283e-12 0)
(4.3743e-12 5.96982e-12 0)
(3.55757e-12 5.72264e-12 0)
(2.78426e-12 5.38136e-12 0)
(2.08442e-12 4.93889e-12 0)
(1.44397e-12 4.38314e-12 0)
(8.83127e-13 3.69491e-12 0)
(4.68472e-13 2.86308e-12 0)
(1.77306e-13 1.86401e-12 0)
(3.62261e-15 7.19724e-13 0)
(-6.21901e-15 -7.97194e-13 0)
(1.49983e-13 -2.09529e-12 0)
(4.023e-13 -3.23057e-12 0)
(7.83468e-13 -4.18943e-12 0)
(1.25965e-12 -4.97769e-12 0)
(1.81726e-12 -5.62015e-12 0)
(2.44279e-12 -6.13215e-12 0)
(3.12812e-12 -6.52127e-12 0)
(3.85398e-12 -6.80334e-12 0)
(4.6047e-12 -6.99026e-12 0)
(5.37434e-12 -7.08482e-12 0)
(6.15312e-12 -7.09551e-12 0)
(6.92921e-12 -7.03009e-12 0)
(7.69415e-12 -6.89421e-12 0)
(8.44136e-12 -6.69288e-12 0)
(9.16349e-12 -6.43105e-12 0)
(9.85343e-12 -6.11428e-12 0)
(1.05055e-11 -5.74706e-12 0)
(1.11147e-11 -5.33414e-12 0)
(1.16762e-11 -4.87981e-12 0)
(1.21853e-11 -4.389e-12 0)
(1.26385e-11 -3.86594e-12 0)
(1.30326e-11 -3.31488e-12 0)
(1.33644e-11 -2.74025e-12 0)
(1.36315e-11 -2.14658e-12 0)
(1.38321e-11 -1.53707e-12 0)
(1.39652e-11 -9.16189e-13 0)
(1.40307e-11 -2.88425e-13 0)
(1.40287e-11 3.41447e-13 0)
(1.39589e-11 9.68152e-13 0)
(1.38213e-11 1.58691e-12 0)
(1.36164e-11 2.19333e-12 0)
(1.33453e-11 2.78304e-12 0)
(1.30099e-11 3.3524e-12 0)
(1.26127e-11 3.89758e-12 0)
(1.21568e-11 4.41392e-12 0)
(1.16455e-11 4.89756e-12 0)
(1.10827e-11 5.34457e-12 0)
(1.0473e-11 5.75016e-12 0)
(9.82099e-12 6.10992e-12 0)
(9.13202e-12 6.41938e-12 0)
(8.41189e-12 6.67396e-12 0)
(7.66708e-12 6.86874e-12 0)
(6.90442e-12 6.99913e-12 0)
(6.13181e-12 7.05923e-12 0)
(5.35775e-12 7.04347e-12 0)
(4.59036e-12 6.94577e-12 0)
(3.84024e-12 6.75857e-12 0)
(3.12107e-12 6.4738e-12 0)
(2.44274e-12 6.08499e-12 0)
(1.8091e-12 5.5773e-12 0)
(1.25283e-12 4.9377e-12 0)
(7.91663e-13 4.1594e-12 0)
(3.95234e-13 3.21359e-12 0)
(1.37127e-13 2.07528e-12 0)
(3.49775e-15 7.98317e-13 0)
(3.97617e-15 -8.59662e-13 0)
(1.28404e-13 -2.27731e-12 0)
(3.45963e-13 -3.52799e-12 0)
(6.69697e-13 -4.5843e-12 0)
(1.07978e-12 -5.4602e-12 0)
(1.56343e-12 -6.17362e-12 0)
(2.10669e-12 -6.73938e-12 0)
(2.69979e-12 -7.17444e-12 0)
(3.32791e-12 -7.49217e-12 0)
(3.98112e-12 -7.69991e-12 0)
(4.65237e-12 -7.80619e-12 0)
(5.3302e-12 -7.82026e-12 0)
(6.00592e-12 -7.74947e-12 0)
(6.67307e-12 -7.6001e-12 0)
(7.32478e-12 -7.37804e-12 0)
(7.95432e-12 -7.08962e-12 0)
(8.55614e-12 -6.74032e-12 0)
(9.12513e-12 -6.33518e-12 0)
(9.65658e-12 -5.8795e-12 0)
(1.01462e-11 -5.3787e-12 0)
(1.05903e-11 -4.83737e-12 0)
(1.09857e-11 -4.26028e-12 0)
(1.13293e-11 -3.65279e-12 0)
(1.16184e-11 -3.01925e-12 0)
(1.18512e-11 -2.36428e-12 0)
(1.20263e-11 -1.6925e-12 0)
(1.21427e-11 -1.00853e-12 0)
(1.21999e-11 -3.17214e-13 0)
(1.21978e-11 3.76039e-13 0)
(1.21367e-11 1.06578e-12 0)
(1.20166e-11 1.74702e-12 0)
(1.18377e-11 2.41488e-12 0)
(1.16012e-11 3.06501e-12 0)
(1.13089e-11 3.69276e-12 0)
(1.09626e-11 4.29374e-12 0)
(1.05649e-11 4.86357e-12 0)
(1.01192e-11 5.39737e-12 0)
(9.62858e-12 5.89059e-12 0)
(9.09656e-12 6.33824e-12 0)
(8.52761e-12 6.73551e-12 0)
(7.92645e-12 7.07722e-12 0)
(7.29825e-12 7.35833e-12 0)
(6.64857e-12 7.57343e-12 0)
(5.98333e-12 7.71664e-12 0)
(5.3098e-12 7.78211e-12 0)
(4.63506e-12 7.76347e-12 0)
(3.96682e-12 7.65346e-12 0)
(3.31657e-12 7.44449e-12 0)
(2.69008e-12 7.12806e-12 0)
(2.0975e-12 6.69236e-12 0)
(1.56285e-12 6.12763e-12 0)
(1.08106e-12 5.4233e-12 0)
(6.58008e-13 4.55358e-12 0)
(3.43867e-13 3.50547e-12 0)
(1.30236e-13 2.26651e-12 0)
(5.19112e-16 8.62418e-13 0)
(7.81091e-16 -9.20693e-13 0)
(1.08546e-13 -2.43753e-12 0)
(2.89255e-13 -3.78705e-12 0)
(5.60905e-13 -4.92636e-12 0)
(9.08217e-13 -5.87302e-12 0)
(1.3172e-12 -6.64666e-12 0)
(1.77519e-12 -7.26448e-12 0)
(2.27534e-12 -7.74116e-12 0)
(2.80805e-12 -8.08786e-12 0)
(3.36273e-12 -8.31398e-12 0)
(3.932e-12 -8.43148e-12 0)
(4.50799e-12 -8.44879e-12 0)
(5.08269e-12 -8.3733e-12 0)
(5.65007e-12 -8.21232e-12 0)
(6.20452e-12 -7.97294e-12 0)
(6.74019e-12 -7.66131e-12 0)
(7.25238e-12 -7.28367e-12 0)
(7.73661e-12 -6.84575e-12 0)
(8.18867e-12 -6.35335e-12 0)
(8.60526e-12 -5.81169e-12 0)
(8.9833e-12 -5.22648e-12 0)
(9.31947e-12 -4.60288e-12 0)
(9.61153e-12 -3.94609e-12 0)
(9.85767e-12 -3.26118e-12 0)
(1.00558e-11 -2.55328e-12 0)
(1.02048e-11 -1.82751e-12 0)
(1.03039e-11 -1.08897e-12 0)
(1.03526e-11 -3.42858e-13 0)
(1.03508e-11 4.0535e-13 0)
(1.02985e-11 1.15042e-12 0)
(1.01959e-11 1.88648e-12 0)
(1.00437e-11 2.60838e-12 0)
(9.84254e-12 3.31135e-12 0)
(9.59364e-12 3.99026e-12 0)
(9.29912e-12 4.64019e-12 0)
(8.96099e-12 5.2563e-12 0)
(8.58155e-12 5.83355e-12 0)
(8.16387e-12 6.36647e-12 0)
(7.71115e-12 6.85017e-12 0)
(7.22691e-12 7.27933e-12 0)
(6.71525e-12 7.64847e-12 0)
(6.18064e-12 7.95192e-12 0)
(5.62766e-12 8.18373e-12 0)
(5.06166e-12 8.33776e-12 0)
(4.48902e-12 8.40756e-12 0)
(3.91595e-12 8.3859e-12 0)
(3.34857e-12 8.26503e-12 0)
(2.7956e-12 8.03644e-12 0)
(2.26608e-12 7.69029e-12 0)
(1.76854e-12 7.21649e-12 0)
(1.30822e-12 6.60199e-12 0)
(9.02214e-13 5.82928e-12 0)
(5.66531e-13 4.89111e-12 0)
(2.84935e-13 3.7639e-12 0)
(9.92696e-14 2.41843e-12 0)
(1.44232e-15 9.17781e-13 0)
(-2.376e-15 -9.67623e-13 0)
(8.84267e-14 -2.5682e-12 0)
(2.34075e-13 -3.99682e-12 0)
(4.56808e-13 -5.20502e-12 0)
(7.40445e-13 -6.21422e-12 0)
(1.07307e-12 -7.041e-12 0)
(1.44596e-12 -7.70329e-12 0)
(1.85568e-12 -8.21354e-12 0)
(2.29306e-12 -8.58385e-12 0)
(2.74791e-12 -8.82753e-12 0)
(3.21477e-12 -8.95495e-12 0)
(3.68751e-12 -8.97434e-12 0)
(4.15963e-12 -8.89513e-12 0)
(4.62586e-12 -8.72492e-12 0)
(5.08156e-12 -8.47104e-12 0)
(5.52193e-12 -8.14023e-12 0)
(5.94291e-12 -7.73904e-12 0)
(6.34091e-12 -7.27388e-12 0)
(6.71279e-12 -6.75061e-12 0)
(7.05534e-12 -6.17506e-12 0)
(7.36579e-12 -5.55302e-12 0)
(7.64226e-12 -4.89033e-12 0)
(7.88251e-12 -4.19215e-12 0)
(8.08464e-12 -3.46435e-12 0)
(8.24737e-12 -2.71222e-12 0)
(8.36977e-12 -1.94114e-12 0)
(8.45119e-12 -1.1565e-12 0)
(8.49128e-12 -3.64047e-13 0)
(8.48995e-12 4.30541e-13 0)
(8.44701e-12 1.2216e-12 0)
(8.3625e-12 2.00345e-12 0)
(8.23708e-12 2.77074e-12 0)
(8.07153e-12 3.5178e-12 0)
(7.86691e-12 4.23947e-12 0)
(7.62461e-12 4.93047e-12 0)
(7.34645e-12 5.58529e-12 0)
(7.03438e-12 6.19866e-12 0)
(6.69082e-12 6.76521e-12 0)
(6.31849e-12 7.27933e-12 0)
(5.92031e-12 7.73543e-12 0)
(5.49956e-12 8.12764e-12 0)
(5.05993e-12 8.44983e-12 0)
(4.60542e-12 8.69578e-12 0)
(4.1404e-12 8.85889e-12 0)
(3.67005e-12 8.93213e-12 0)
(3.19932e-12 8.90773e-12 0)
(2.73367e-12 8.77714e-12 0)
(2.2818e-12 8.53167e-12 0)
(1.84742e-12 8.16098e-12 0)
(1.43707e-12 7.65238e-12 0)
(1.06714e-12 6.99463e-12 0)
(7.38376e-13 6.17574e-12 0)
(4.50631e-13 5.17072e-12 0)
(2.32069e-13 3.96718e-12 0)
(8.72602e-14 2.55391e-12 0)
(6.48791e-16 9.62439e-13 0)
(-1.32491e-15 -1.00342e-12 0)
(6.93123e-14 -2.67204e-12 0)
(1.81955e-13 -4.16231e-12 0)
(3.53248e-13 -5.42777e-12 0)
(5.73142e-13 -6.48711e-12 0)
(8.31838e-13 -7.35629e-12 0)
(1.12138e-12 -8.05218e-12 0)
(1.4414e-12 -8.58876e-12 0)
(1.78213e-12 -8.97952e-12 0)
(2.13542e-12 -9.23735e-12 0)
(2.49977e-12 -9.37278e-12 0)
(2.86879e-12 -9.39466e-12 0)
(3.23689e-12 -9.3124e-12 0)
(3.60068e-12 -9.13499e-12 0)
(3.95646e-12 -8.86948e-12 0)
(4.30032e-12 -8.52343e-12 0)
(4.62898e-12 -8.10337e-12 0)
(4.93974e-12 -7.61623e-12 0)
(5.22998e-12 -7.06806e-12 0)
(5.49748e-12 -6.46553e-12 0)
(5.73999e-12 -5.81405e-12 0)
(5.95571e-12 -5.11996e-12 0)
(6.1431e-12 -4.38892e-12 0)
(6.30084e-12 -3.6268e-12 0)
(6.428e-12 -2.83905e-12 0)
(6.52374e-12 -2.03169e-12 0)
(6.58743e-12 -1.21026e-12 0)
(6.61861e-12 -3.80836e-13 0)
(6.61721e-12 4.50889e-13 0)
(6.58333e-12 1.27879e-12 0)
(6.51728e-12 2.09723e-12 0)
(6.41931e-12 2.90031e-12 0)
(6.28988e-12 3.68252e-12 0)
(6.12994e-12 4.43819e-12 0)
(5.94063e-12 5.16177e-12 0)
(5.72327e-12 5.84774e-12 0)
(5.47952e-12 6.49019e-12 0)
(5.21122e-12 7.08368e-12 0)
(4.92043e-12 7.6223e-12 0)
(4.60943e-12 8.10005e-12 0)
(4.28078e-12 8.51076e-12 0)
(3.9375e-12 8.84812e-12 0)
(3.58268e-12 9.10545e-12 0)
(3.21967e-12 9.27558e-12 0)
(2.85268e-12 9.35138e-12 0)
(2.48589e-12 9.32456e-12 0)
(2.12298e-12 9.18616e-12 0)
(1.77033e-12 8.9264e-12 0)
(1.4323e-12 8.53479e-12 0)
(1.1159e-12 8.00077e-12 0)
(8.26603e-13 7.3083e-12 0)
(5.67328e-13 6.44279e-12 0)
(3.53246e-13 5.39351e-12 0)
(1.8131e-13 4.13928e-12 0)
(6.27908e-14 2.65205e-12 0)
(1.43407e-15 9.9969e-13 0)
(-1.63529e-15 -1.03112e-12 0)
(5.01304e-14 -2.75045e-12 0)
(1.29537e-13 -4.28812e-12 0)
(2.51257e-13 -5.59649e-12 0)
(4.09206e-13 -6.69191e-12 0)
(5.9436e-13 -7.59228e-12 0)
(8.00899e-13 -8.3136e-12 0)
(1.02965e-12 -8.87076e-12 0)
(1.27344e-12 -9.27773e-12 0)
(1.52605e-12 -9.54617e-12 0)
(1.78713e-12 -9.68738e-12 0)
(2.05062e-12 -9.71124e-12 0)
(2.31482e-12 -9.62696e-12 0)
(2.57516e-12 -9.44404e-12 0)
(2.82996e-12 -9.16991e-12 0)
(3.07625e-12 -8.81207e-12 0)
(3.3117e-12 -8.37789e-12 0)
(3.5343e-12 -7.87413e-12 0)
(3.74217e-12 -7.30747e-12 0)
(3.93367e-12 -6.68409e-12 0)
(4.10732e-12 -6.01065e-12 0)
(4.26178e-12 -5.29277e-12 0)
(4.39608e-12 -4.53686e-12 0)
(4.50914e-12 -3.74866e-12 0)
(4.60013e-12 -2.93432e-12 0)
(4.66852e-12 -2.09963e-12 0)
(4.71397e-12 -1.25072e-12 0)
(4.73623e-12 -3.93399e-13 0)
(4.73526e-12 4.66083e-13 0)
(4.71089e-12 1.32178e-12 0)
(4.66322e-12 2.16784e-12 0)
(4.59266e-12 2.99818e-12 0)
(4.4998e-12 3.80698e-12 0)
(4.38508e-12 4.58847e-12 0)
(4.24942e-12 5.33673e-12 0)
(4.09358e-12 6.046e-12 0)
(3.91874e-12 6.71051e-12 0)
(3.72649e-12 7.32422e-12 0)
(3.51808e-12 7.88111e-12 0)
(3.29514e-12 8.375e-12 0)
(3.05968e-12 8.79957e-12 0)
(2.81381e-12 9.14826e-12 0)
(2.55958e-12 9.41396e-12 0)
(2.29965e-12 9.5892e-12 0)
(2.03659e-12 9.66682e-12 0)
(1.7748e-12 9.63801e-12 0)
(1.51435e-12 9.49292e-12 0)
(1.26301e-12 9.22285e-12 0)
(1.02275e-12 8.81612e-12 0)
(7.93685e-13 8.2594e-12 0)
(5.87447e-13 7.54182e-12 0)
(4.09356e-13 6.64891e-12 0)
(2.51916e-13 5.55816e-12 0)
(1.25024e-13 4.25724e-12 0)
(4.64016e-14 2.73384e-12 0)
(-1.13527e-15 1.02488e-12 0)
(-1.97997e-15 -1.04944e-12 0)
(3.12945e-14 -2.80217e-12 0)
(7.8457e-14 -4.37194e-12 0)
(1.50986e-13 -5.70778e-12 0)
(2.47138e-13 -6.82801e-12 0)
(3.58814e-13 -7.74938e-12 0)
(4.82178e-13 -8.48845e-12 0)
(6.1994e-13 -9.05976e-12 0)
(7.66582e-13 -9.47698e-12 0)
(9.17992e-13 -9.75238e-12 0)
(1.078e-12 -9.89643e-12 0)
(1.23134e-12 -9.92053e-12 0)
(1.39355e-12 -9.8371e-12 0)
(1.54945e-12 -9.65076e-12 0)
(1.70262e-12 -9.37079e-12 0)
(1.85064e-12 -9.00512e-12 0)
(1.992e-12 -8.56148e-12 0)
(2.12569e-12 -8.04668e-12 0)
(2.2507e-12 -7.46763e-12 0)
(2.36574e-12 -6.83058e-12 0)
(2.47007e-12 -6.14221e-12 0)
(2.56293e-12 -5.40856e-12 0)
(2.64346e-12 -4.63608e-12 0)
(2.71124e-12 -3.8306e-12 0)
(2.76587e-12 -2.99843e-12 0)
(2.80699e-12 -2.14527e-12 0)
(2.8343e-12 -1.27766e-12 0)
(2.84746e-12 -4.01525e-13 0)
(2.84638e-12 4.7673e-13 0)
(2.83149e-12 1.35111e-12 0)
(2.80277e-12 2.21551e-12 0)
(2.76023e-12 3.06414e-12 0)
(2.70418e-12 3.89076e-12 0)
(2.63493e-12 4.68944e-12 0)
(2.55301e-12 5.45432e-12 0)
(2.45916e-12 6.17912e-12 0)
(2.35396e-12 6.85834e-12 0)
(2.23814e-12 7.48552e-12 0)
(2.11268e-12 8.05457e-12 0)
(1.9786e-12 8.55929e-12 0)
(1.83705e-12 8.99311e-12 0)
(1.68932e-12 9.34921e-12 0)
(1.53657e-12 9.62055e-12 0)
(1.3808e-12 9.79904e-12 0)
(1.21988e-12 9.8758e-12 0)
(1.06649e-12 9.84647e-12 0)
(9.08315e-13 9.69835e-12 0)
(7.57829e-13 9.42082e-12 0)
(6.11864e-13 9.00295e-12 0)
(4.77127e-13 8.43387e-12 0)
(3.57038e-13 7.69872e-12 0)
(2.41983e-13 6.77987e-12 0)
(1.48251e-13 5.66909e-12 0)
(8.17662e-14 4.34447e-12 0)
(2.69926e-14 2.78098e-12 0)
(1.81447e-15 1.04327e-12 0)
(-1.67989e-15 -1.05847e-12 0)
(1.19994e-14 -2.82812e-12 0)
(2.76741e-14 -4.41345e-12 0)
(5.17539e-14 -5.76349e-12 0)
(8.58491e-14 -6.89615e-12 0)
(1.24205e-13 -7.82816e-12 0)
(1.64436e-13 -8.57582e-12 0)
(2.1138e-13 -9.15396e-12 0)
(2.6097e-13 -9.5763e-12 0)
(3.09864e-13 -9.85536e-12 0)
(3.63823e-13 -1.00026e-11 0)
(4.16386e-13 -1.00297e-11 0)
(4.74461e-13 -9.94285e-12 0)
(5.23584e-13 -9.7535e-12 0)
(5.74401e-13 -9.47046e-12 0)
(6.2367e-13 -9.1013e-12 0)
(6.7066e-13 -8.65304e-12 0)
(7.1512e-13 -8.13279e-12 0)
(7.56717e-13 -7.54734e-12 0)
(7.95049e-13 -6.90356e-12 0)
(8.29714e-13 -6.20763e-12 0)
(8.60462e-13 -5.46627e-12 0)
(8.87267e-13 -4.68529e-12 0)
(9.09876e-13 -3.87114e-12 0)
(9.28146e-13 -3.02981e-12 0)
(9.41772e-13 -2.16768e-12 0)
(9.50554e-13 -1.29079e-12 0)
(9.54583e-13 -4.05597e-13 0)
(9.53831e-13 4.82045e-13 0)
(9.48409e-13 1.36592e-12 0)
(9.38415e-13 2.23974e-12 0)
(9.23855e-13 3.09733e-12 0)
(9.0473e-13 3.93281e-12 0)
(8.81342e-13 4.74001e-12 0)
(8.5363e-13 5.51306e-12 0)
(8.21971e-13 6.2459e-12 0)
(7.86597e-13 6.93227e-12 0)
(7.47601e-13 7.56616e-12 0)
(7.05568e-13 8.14137e-12 0)
(6.60691e-13 8.65138e-12 0)
(6.1333e-13 9.08965e-12 0)
(5.64194e-13 9.44925e-12 0)
(5.13622e-13 9.72328e-12 0)
(4.64287e-13 9.90476e-12 0)
(4.07002e-13 9.9851e-12 0)
(3.54749e-13 9.95204e-12 0)
(3.01778e-13 9.80065e-12 0)
(2.53122e-13 9.51922e-12 0)
(2.07101e-13 9.09635e-12 0)
(1.60087e-13 8.51923e-12 0)
(1.16184e-13 7.77539e-12 0)
(8.63183e-14 6.85013e-12 0)
(5.75513e-14 5.72348e-12 0)
(2.15755e-14 4.38102e-12 0)
(5.97877e-15 2.81047e-12 0)
(-1.17807e-15 1.05098e-12 0)
(-1.70085e-15 -1.05925e-12 0)
(-5.52999e-15 -2.82779e-12 0)
(-2.20686e-14 -4.41413e-12 0)
(-4.7469e-14 -5.76429e-12 0)
(-7.50837e-14 -6.89672e-12 0)
(-1.09896e-13 -7.82863e-12 0)
(-1.5251e-13 -8.57597e-12 0)
(-1.96374e-13 -9.15389e-12 0)
(-2.43264e-13 -9.57615e-12 0)
(-2.92867e-13 -9.85517e-12 0)
(-3.46124e-13 -1.00023e-11 0)
(-3.97534e-13 -1.00294e-11 0)
(-4.55553e-13 -9.94247e-12 0)
(-5.04715e-13 -9.75312e-12 0)
(-5.55301e-13 -9.47007e-12 0)
(-6.04517e-13 -9.1009e-12 0)
(-6.51677e-13 -8.65262e-12 0)
(-6.96307e-13 -8.1323e-12 0)
(-7.38103e-13 -7.54684e-12 0)
(-7.76707e-13 -6.90295e-12 0)
(-8.11822e-13 -6.20699e-12 0)
(-8.42983e-13 -5.46521e-12 0)
(-8.70041e-13 -4.68408e-12 0)
(-8.92903e-13 -3.8699e-12 0)
(-9.11369e-13 -3.02866e-12 0)
(-9.25384e-13 -2.16687e-12 0)
(-9.3496e-13 -1.29032e-12 0)
(-9.40055e-13 -4.05217e-13 0)
(-9.4043e-13 4.82292e-13 0)
(-9.36129e-13 1.36595e-12 0)
(-9.27289e-13 2.2398e-12 0)
(-9.1382e-13 3.0975e-12 0)
(-8.95806e-13 3.93307e-12 0)
(-8.73462e-13 4.74043e-12 0)
(-8.46788e-13 5.51336e-12 0)
(-8.16146e-13 6.24619e-12 0)
(-7.81716e-13 6.9325e-12 0)
(-7.43574e-13 7.56642e-12 0)
(-7.02195e-13 8.14155e-12 0)
(-6.57924e-13 8.65144e-12 0)
(-6.11117e-13 9.08963e-12 0)
(-5.62104e-13 9.44921e-12 0)
(-5.11476e-13 9.72307e-12 0)
(-4.62414e-13 9.90441e-12 0)
(-4.04705e-13 9.98467e-12 0)
(-3.51792e-13 9.95152e-12 0)
(-2.98991e-13 9.8e-12 0)
(-2.48877e-13 9.51821e-12 0)
(-2.02302e-13 9.09521e-12 0)
(-1.55586e-13 8.51918e-12 0)
(-1.08504e-13 7.77482e-12 0)
(-7.93874e-14 6.84659e-12 0)
(-5.29302e-14 5.72363e-12 0)
(-1.69148e-14 4.38425e-12 0)
(-8.74673e-15 2.80774e-12 0)
(1.51538e-15 1.05104e-12 0)
(-3.09288e-15 -1.05062e-12 0)
(-2.40352e-14 -2.80336e-12 0)
(-7.33239e-14 -4.37346e-12 0)
(-1.46479e-13 -5.70927e-12 0)
(-2.36275e-13 -6.82953e-12 0)
(-3.44549e-13 -7.7506e-12 0)
(-4.70338e-13 -8.48899e-12 0)
(-6.05364e-13 -9.05995e-12 0)
(-7.49565e-13 -9.47672e-12 0)
(-9.01721e-13 -9.75175e-12 0)
(-1.06103e-12 -9.89565e-12 0)
(-1.21336e-12 -9.91965e-12 0)
(-1.37552e-12 -9.83608e-12 0)
(-1.53145e-12 -9.64963e-12 0)
(-1.68435e-12 -9.36958e-12 0)
(-1.8323e-12 -9.00396e-12 0)
(-1.97375e-12 -8.56023e-12 0)
(-2.1076e-12 -8.04538e-12 0)
(-2.23273e-12 -7.46624e-12 0)
(-2.348e-12 -6.82911e-12 0)
(-2.45244e-12 -6.14062e-12 0)
(-2.54557e-12 -5.40682e-12 0)
(-2.6267e-12 -4.63419e-12 0)
(-2.69496e-12 -3.8285e-12 0)
(-2.75011e-12 -2.99633e-12 0)
(-2.79182e-12 -2.14338e-12 0)
(-2.81965e-12 -1.2762e-12 0)
(-2.83363e-12 -4.00307e-13 0)
(-2.83375e-12 4.77872e-13 0)
(-2.81977e-12 1.35247e-12 0)
(-2.79183e-12 2.21697e-12 0)
(-2.75026e-12 3.06571e-12 0)
(-2.69522e-12 3.89213e-12 0)
(-2.62717e-12 4.6909e-12 0)
(-2.54641e-12 5.45557e-12 0)
(-2.45347e-12 6.18049e-12 0)
(-2.34911e-12 6.85942e-12 0)
(-2.23412e-12 7.48655e-12 0)
(-2.10943e-12 8.05528e-12 0)
(-1.97592e-12 8.55991e-12 0)
(-1.8348e-12 8.99333e-12 0)
(-1.68726e-12 9.3493e-12 0)
(-1.53458e-12 9.62021e-12 0)
(-1.37902e-12 9.79841e-12 0)
(-1.21775e-12 9.87478e-12 0)
(-1.06359e-12 9.84512e-12 0)
(-9.05973e-13 9.6964e-12 0)
(-7.54064e-13 9.41892e-12 0)
(-6.06161e-13 9.00105e-12 0)
(-4.72199e-13 8.43065e-12 0)
(-3.5313e-13 7.69582e-12 0)
(-2.3477e-13 6.78119e-12 0)
(-1.37467e-13 5.66621e-12 0)
(-8.08026e-14 4.34063e-12 0)
(-3.34526e-14 2.78457e-12 0)
(-6.67871e-16 1.04193e-12 0)
(-1.436e-15 -1.03304e-12 0)
(-4.30014e-14 -2.7522e-12 0)
(-1.22895e-13 -4.29133e-12 0)
(-2.46882e-13 -5.59875e-12 0)
(-3.98979e-13 -6.6941e-12 0)
(-5.80532e-13 -7.59385e-12 0)
(-7.89855e-13 -8.31461e-12 0)
(-1.01607e-12 -8.87152e-12 0)
(-1.25736e-12 -9.27763e-12 0)
(-1.51114e-12 -9.54552e-12 0)
(-1.77181e-12 -9.68664e-12 0)
(-2.03418e-12 -9.71014e-12 0)
(-2.29831e-12 -9.62565e-12 0)
(-2.55871e-12 -9.44267e-12 0)
(-2.81338e-12 -9.16838e-12 0)
(-3.05955e-12 -8.81055e-12 0)
(-3.29502e-12 -8.37618e-12 0)
(-3.51773e-12 -7.87251e-12 0)
(-3.72567e-12 -7.3056e-12 0)
(-3.91736e-12 -6.68234e-12 0)
(-4.09131e-12 -6.00849e-12 0)
(-4.24607e-12 -5.29088e-12 0)
(-4.38047e-12 -4.53465e-12 0)
(-4.49383e-12 -3.74663e-12 0)
(-4.58534e-12 -2.93208e-12 0)
(-4.65443e-12 -2.09752e-12 0)
(-4.70058e-12 -1.24814e-12 0)
(-4.72343e-12 -3.9098e-13 0)
(-4.72299e-12 4.68918e-13 0)
(-4.69942e-12 1.32457e-12 0)
(-4.65284e-12 2.17092e-12 0)
(-4.58353e-12 3.00105e-12 0)
(-4.49164e-12 3.81016e-12 0)
(-4.3778e-12 4.59132e-12 0)
(-4.243e-12 5.33987e-12 0)
(-4.0881e-12 6.04874e-12 0)
(-3.91424e-12 6.71326e-12 0)
(-3.72272e-12 7.32638e-12 0)
(-3.51487e-12 7.88317e-12 0)
(-3.29254e-12 8.37648e-12 0)
(-3.05759e-12 8.8008e-12 0)
(-2.81182e-12 9.14866e-12 0)
(-2.55766e-12 9.41407e-12 0)
(-2.29799e-12 9.58856e-12 0)
(-2.03462e-12 9.66567e-12 0)
(-1.77237e-12 9.6361e-12 0)
(-1.5119e-12 9.49083e-12 0)
(-1.25863e-12 9.21969e-12 0)
(-1.01941e-12 8.81246e-12 0)
(-7.90625e-13 8.25715e-12 0)
(-5.76062e-13 7.53842e-12 0)
(-4.03714e-13 6.64253e-12 0)
(-2.54297e-13 5.55705e-12 0)
(-1.16299e-13 4.26023e-12 0)
(-4.61578e-14 2.73122e-12 0)
(2.19551e-15 1.02474e-12 0)
(-3.256e-15 -1.00613e-12 0)
(-6.21795e-14 -2.6752e-12 0)
(-1.75867e-13 -4.16693e-12 0)
(-3.48037e-13 -5.43165e-12 0)
(-5.63249e-13 -6.48943e-12 0)
(-8.19051e-13 -7.35753e-12 0)
(-1.11208e-12 -8.05214e-12 0)
(-1.42953e-12 -8.58818e-12 0)
(-1.76781e-12 -8.97883e-12 0)
(-2.1228e-12 -9.23588e-12 0)
(-2.4867e-12 -9.37081e-12 0)
(-2.85458e-12 -9.39239e-12 0)
(-3.22296e-12 -9.31014e-12 0)
(-3.58678e-12 -9.13245e-12 0)
(-3.94229e-12 -8.867e-12 0)
(-4.28595e-12 -8.52054e-12 0)
(-4.61469e-12 -8.10068e-12 0)
(-4.92543e-12 -7.61319e-12 0)
(-5.21573e-12 -7.06525e-12 0)
(-5.48316e-12 -6.46225e-12 0)
(-5.72581e-12 -5.81096e-12 0)
(-5.94173e-12 -5.11642e-12 0)
(-6.1295e-12 -4.38539e-12 0)
(-6.28767e-12 -3.62292e-12 0)
(-6.41514e-12 -2.83539e-12 0)
(-6.51104e-12 -2.02786e-12 0)
(-6.57506e-12 -1.20678e-12 0)
(-6.60689e-12 -3.77194e-13 0)
(-6.60637e-12 4.54205e-13 0)
(-6.57328e-12 1.28234e-12 0)
(-6.5079e-12 2.10063e-12 0)
(-6.41063e-12 2.90404e-12 0)
(-6.28207e-12 3.6863e-12 0)
(-6.12307e-12 4.44216e-12 0)
(-5.93473e-12 5.1655e-12 0)
(-5.7183e-12 5.85131e-12 0)
(-5.47533e-12 6.49339e-12 0)
(-5.20774e-12 7.0865e-12 0)
(-4.9175e-12 7.62441e-12 0)
(-4.60706e-12 8.10152e-12 0)
(-4.27892e-12 8.51145e-12 0)
(-3.93579e-12 8.84808e-12 0)
(-3.58089e-12 9.10449e-12 0)
(-3.21831e-12 9.27378e-12 0)
(-2.85094e-12 9.34877e-12 0)
(-2.48327e-12 9.32112e-12 0)
(-2.12142e-12 9.18169e-12 0)
(-1.76795e-12 8.92167e-12 0)
(-1.42588e-12 8.53013e-12 0)
(-1.11141e-12 7.99334e-12 0)
(-8.28164e-13 7.3026e-12 0)
(-5.59974e-13 6.44116e-12 0)
(-3.36193e-13 5.38785e-12 0)
(-1.85969e-13 4.1321e-12 0)
(-7.22642e-14 2.65692e-12 0)
(-2.57043e-15 9.9677e-13 0)
(-1.52121e-15 -9.69501e-13 0)
(-8.25686e-14 -2.57215e-12 0)
(-2.27305e-13 -3.99973e-12 0)
(-4.51436e-13 -5.20772e-12 0)
(-7.30526e-13 -6.21598e-12 0)
(-1.06101e-12 -7.04195e-12 0)
(-1.43806e-12 -7.70168e-12 0)
(-1.84697e-12 -8.21044e-12 0)
(-2.28195e-12 -8.58071e-12 0)
(-2.73778e-12 -8.82395e-12 0)
(-3.20477e-12 -8.9508e-12 0)
(-3.6769e-12 -8.97011e-12 0)
(-4.14896e-12 -8.89073e-12 0)
(-4.61521e-12 -8.72029e-12 0)