/*--------------------------------*- C++ -*----------------------------------*\
| =========                 |                                                 |
| \\      /  F ield         | OpenFOAM: The Open Source CFD Toolbox           |
|  \\    /   O peration     | Version:  5.0                                   |
|   \\  /    A nd           | Web:      www.OpenFOAM.org                      |
|    \\/     M anipulation  |                                                 |
\*---------------------------------------------------------------------------*/
FoamFile
{
    version     2.0;
    format      ascii;
    class       volScalarField;
    location    "1.3";
    object      nu;
}
// * * * * * * * * * * * * * * * * * * * * * * * * * * * * * * * * * * * * * //

dimensions      [0 2 -1 0 0 0 0];

internalField   nonuniform List<scalar> 
25
(
3.39286
3.39286
3.39286
3.39285
3.39285
9.32609
9.32609
9.32609
9.32609
9.32609
9.84631
9.84631
9.84631
9.84631
9.84631
9.94344
9.94344
9.94344
9.94344
9.94344
9.97331
9.97331
9.97331
9.97331
9.97331
)
;

boundaryField
{
    top
    {
        type            calculated;
        value           nonuniform List<scalar> 5(9.98053 9.98053 9.98053 9.98053 9.98053);
    }
    bottom
    {
        type            symmetryPlane;
    }
    inlet
    {
        type            calculated;
        value           nonuniform 0();
    }
    outlet
    {
        type            calculated;
        value           nonuniform List<scalar> 5(3.39285 9.32609 9.84631 9.94344 9.97331);
    }
    frontAndBack
    {
        type            empty;
    }
    procBoundary1to0
    {
        type            processor;
        value           nonuniform List<scalar> 5(3.39286 9.32609 9.84631 9.94344 9.97331);
    }
}


// ************************************************************************* //
