/*--------------------------------*- C++ -*----------------------------------*\
| =========                 |                                                 |
| \\      /  F ield         | OpenFOAM: The Open Source CFD Toolbox           |
|  \\    /   O peration     | Version:  5.0                                   |
|   \\  /    A nd           | Web:      www.OpenFOAM.org                      |
|    \\/     M anipulation  |                                                 |
\*---------------------------------------------------------------------------*/
FoamFile
{
    version     2.0;
    format      ascii;
    class       surfaceScalarField;
    location    "264";
    object      phi;
}
// * * * * * * * * * * * * * * * * * * * * * * * * * * * * * * * * * * * * * //

dimensions      [0 3 -1 0 0 0 0];

internalField   nonuniform List<scalar> 
3052
(
1.08637e-22
-3.49836e-22
6.92206e-22
-5.8907e-22
1.70698e-21
-1.02004e-21
2.8605e-21
-1.15801e-21
4.16576e-21
-1.3093e-21
5.69957e-21
-1.53731e-21
7.34343e-21
-1.64703e-21
9.07174e-21
-1.7314e-21
1.08813e-20
-1.81251e-21
1.27392e-20
-1.86074e-21
1.46169e-20
-1.88038e-21
1.64973e-20
-1.88304e-21
1.83621e-20
-1.86726e-21
2.01905e-20
-1.83082e-21
2.19656e-20
-1.77756e-21
2.36726e-20
-1.70928e-21
2.52957e-20
-1.62536e-21
2.68226e-20
-1.52894e-21
2.82402e-20
-1.41959e-21
2.95386e-20
-1.30016e-21
3.07069e-20
-1.16985e-21
3.17381e-20
-1.03261e-21
3.26234e-20
-8.86428e-22
3.33546e-20
-7.32199e-22
3.39297e-20
-5.75769e-22
3.43509e-20
-4.21731e-22
3.46039e-20
-2.53277e-22
3.46863e-20
-8.25385e-23
3.45965e-20
8.99466e-23
3.43376e-20
2.59385e-22
3.39109e-20
4.27524e-22
3.3331e-20
5.81027e-22
3.25945e-20
7.38154e-22
3.17068e-20
8.89593e-22
3.06734e-20
1.03546e-21
2.95054e-20
1.17035e-21
2.82059e-20
1.30192e-21
2.67902e-20
1.41829e-21
2.52649e-20
1.52784e-21
2.36441e-20
1.62336e-21
2.19397e-20
1.70686e-21
2.01696e-20
1.77251e-21
1.83459e-20
1.82614e-21
1.64884e-20
1.86e-21
1.4614e-20
1.87688e-21
1.27447e-20
1.87195e-21
1.08999e-20
1.84744e-21
9.10364e-21
1.79904e-21
7.37915e-21
1.72751e-21
5.75338e-21
1.62819e-21
4.25484e-21
1.50123e-21
2.91949e-21
1.33865e-21
1.78075e-21
1.14103e-21
8.60444e-22
9.2323e-22
2.59662e-22
6.02918e-22
2.59966e-22
2.11353e-22
-5.66358e-22
7.56497e-22
-1.15024e-21
1.50262e-21
-1.78007e-21
2.55832e-21
-2.22621e-21
3.86244e-21
-2.62428e-21
5.24722e-21
-2.93202e-21
6.76078e-21
-3.16995e-21
8.38506e-21
-3.36447e-21
1.00675e-20
-3.5033e-21
1.17906e-20
-3.59192e-21
1.35406e-20
-3.63804e-21
1.52939e-20
-3.64374e-21
1.70293e-20
-3.60976e-21
1.87314e-20
-3.53998e-21
2.0385e-20
-3.43788e-21
2.1974e-20
-3.30468e-21
2.34856e-20
-3.14307e-21
2.4907e-20
-2.95599e-21
2.62271e-20
-2.74498e-21
2.74351e-20
-2.51282e-21
2.85225e-20
-2.26142e-21
2.94803e-20
-1.99382e-21
3.03023e-20
-1.71126e-21
3.09851e-20
-1.41725e-21
3.15263e-20
-1.11863e-21
3.19166e-20
-8.13025e-22
3.2154e-20
-4.91202e-22
3.2232e-20
-1.60239e-22
3.21498e-20
1.7319e-22
3.19069e-20
5.0422e-22
3.15113e-20
8.26106e-22
3.0966e-20
1.1303e-21
3.02809e-20
1.42811e-21
2.94562e-20
1.71994e-21
2.84963e-20
2.00164e-21
2.74068e-20
2.26649e-21
2.61993e-20
2.51652e-21
2.48791e-20
2.74568e-21
2.34594e-20
2.95478e-21
2.19508e-20
3.13909e-21
2.03658e-20
3.29896e-21
1.87158e-20
3.42957e-21
1.70187e-20
3.53038e-21
1.5289e-20
3.59707e-21
1.35443e-20
3.62921e-21
1.18017e-20
3.62225e-21
1.00824e-20
3.57482e-21
8.40745e-21
3.48252e-21
6.79974e-21
3.34267e-21
5.28644e-21
3.15013e-21
3.89253e-21
2.90409e-21
2.64526e-21
2.5928e-21
1.58904e-21
2.20659e-21
7.7907e-22
1.73952e-21
2.26844e-22
1.16259e-21
4.87177e-22
9.88375e-23
-6.6993e-22
6.15541e-22
-1.67643e-21
1.35565e-21
-2.52878e-21
2.33623e-21
-3.21429e-21
3.46756e-21
-3.76262e-21
4.75868e-21
-4.22953e-21
6.16828e-21
-4.5854e-21
7.66271e-21
-4.86442e-21
9.22042e-21
-5.06617e-21
1.08206e-20
-5.19689e-21
1.24415e-20
-5.26353e-21
1.40634e-20
-5.27005e-21
1.56715e-20
-5.2221e-21
1.72491e-20
-5.12167e-21
1.87804e-20
-4.97295e-21
2.0252e-20
-4.77983e-21
2.16521e-20
-4.54637e-21
2.29678e-20
-4.27473e-21
2.41897e-20
-3.96946e-21
2.5308e-20
-3.63345e-21
2.6315e-20
-3.2703e-21
2.72022e-20
-2.88271e-21
2.79647e-20
-2.47497e-21
2.85971e-20
-2.05062e-21
2.90931e-20
-1.61521e-21
2.94467e-20
-1.16693e-21
2.96594e-20
-7.03795e-22
2.97289e-20
-2.29241e-22
2.96546e-20
2.48483e-22
2.94378e-20
7.22226e-22
2.90811e-20
1.18462e-21
2.85817e-20
1.63187e-21
2.7946e-20
2.06634e-21
2.71807e-20
2.48812e-21
2.62922e-20
2.89331e-21
2.52842e-20
3.27795e-21
2.41658e-20
3.63853e-21
2.29442e-20
3.97116e-21
2.16298e-20
4.27324e-21
2.02315e-20
4.54151e-21
1.8763e-20
4.77174e-21
1.72356e-20
4.96141e-21
1.56634e-20
5.1072e-21
1.40599e-20
5.2054e-21
1.24426e-20
5.25139e-21
1.0828e-20
5.24225e-21
9.23491e-21
5.1733e-21
7.68333e-21
5.03934e-21
6.19567e-21
4.837e-21
4.79228e-21
4.55896e-21
3.50806e-21
4.19341e-21
2.37102e-21
3.7377e-21
1.40367e-21
3.17834e-21
6.55545e-22
2.49616e-21
1.73702e-22
1.64827e-21
6.61164e-22
1.38526e-22
-8.09977e-22
5.69723e-22
-2.11169e-21
1.20874e-21
-3.17134e-21
2.07429e-21
-4.08334e-21
3.12547e-21
-4.81703e-21
4.29643e-21
-5.40359e-21
5.58331e-21
-5.87513e-21
6.95507e-21
-6.23869e-21
8.38444e-21
-6.49771e-21
9.85299e-21
-6.66746e-21
1.13439e-20
-6.75632e-21
1.28377e-20
-6.76566e-21
1.43165e-20
-6.70252e-21
1.57669e-20
-6.57356e-21
1.71755e-20
-6.38275e-21
1.85295e-20
-6.13485e-21
1.98167e-20
-5.83439e-21
2.10274e-20
-5.48603e-21
2.21514e-20
-5.09403e-21
2.31803e-20
-4.66262e-21
2.41059e-20
-4.19615e-21
2.49221e-20
-3.69906e-21
2.56228e-20
-3.17577e-21
2.62028e-20
-2.63058e-21
2.66558e-20
-2.06808e-21
2.69786e-20
-1.48935e-21
2.7171e-20
-8.95875e-22
2.72342e-20
-2.91927e-22
2.71683e-20
3.1492e-22
2.69723e-20
9.1883e-22
2.66459e-20
1.51146e-21
2.61894e-20
2.0888e-21
2.56071e-20
2.64893e-21
2.49038e-20
3.19185e-21
2.40856e-20
3.71201e-21
2.31581e-20
4.20609e-21
2.21289e-20
4.66849e-21
2.10049e-20
5.09625e-21
1.97954e-20
5.48399e-21
1.85102e-20
5.8283e-21
1.7159e-20
6.12484e-21
1.57532e-20
6.36939e-21
1.43062e-20
6.55656e-21
1.28316e-20
6.68264e-21
1.13435e-20
6.74235e-21
9.85798e-21
6.73054e-21
8.39319e-21
6.64128e-21
6.96707e-21
6.46941e-21
5.60088e-21
6.2061e-21
4.32109e-21
5.84277e-21
3.14624e-21
5.37356e-21
2.10089e-21
4.78551e-21
1.23617e-21
4.04914e-21
5.80963e-22
3.15425e-21
1.62858e-22
2.07191e-21
8.24254e-22
1.5555e-22
-9.66371e-22
4.85211e-22
-2.44177e-21
1.08685e-21
-3.77366e-21
1.85526e-21
-4.85265e-21
2.78611e-21
-5.74917e-21
3.84707e-21
-6.46591e-21
5.0126e-21
-7.04196e-21
6.25487e-21
-7.48211e-21
7.55463e-21
-7.79851e-21
8.89379e-21
-8.00755e-21
1.02509e-20
-8.11423e-21
1.16104e-20
-8.12591e-21
1.29587e-20
-8.05136e-21
1.42814e-20
-7.89668e-21
1.55656e-20
-7.6671e-21
1.67999e-20
-7.36926e-21
1.79736e-20
-7.00796e-21
1.9077e-20
-6.58934e-21
2.01013e-20
-6.1181e-21
2.10389e-20
-5.59992e-21
2.18826e-20
-5.03946e-21
2.26262e-20
-4.44237e-21
2.32638e-20
-3.81309e-21
2.37911e-20
-3.15746e-21
2.42028e-20
-2.47936e-21
2.44968e-20
-1.78293e-21
2.46723e-20
-1.07083e-21
2.47299e-20
-3.48982e-22
2.4669e-20
3.76242e-22
2.44906e-20
1.09751e-21
2.41938e-20
1.80825e-21
2.37793e-20
2.50316e-21
2.32491e-20
3.17889e-21
2.26089e-20
3.83161e-21
2.18635e-20
4.45704e-21
2.10189e-20
5.05035e-21
2.00806e-20
5.6066e-21
1.90566e-20
6.12036e-21
1.79537e-20
6.58724e-21
1.67812e-20
7.00154e-21
1.55489e-20
7.35822e-21
1.42678e-20
7.6518e-21
1.29482e-20
7.87772e-21
1.16034e-20
8.02926e-21
1.02468e-20
8.10085e-21
8.89345e-21
8.08619e-21
7.5589e-21
7.97825e-21
6.2627e-21
7.76772e-21
5.02351e-21
7.44874e-21
3.8579e-21
7.01155e-21
2.79676e-21
6.43663e-21
1.87328e-21
5.71365e-21
1.09195e-21
4.83252e-21
4.95996e-22
3.75641e-21
1.2147e-22
2.44799e-21
9.45885e-22
1.00965e-22
-1.06667e-21
4.36123e-22
-2.77611e-21
9.50184e-22
-4.28723e-21
1.6388e-21
-5.54134e-21
2.46492e-21
-6.57576e-21
3.41254e-21
-7.41429e-21
4.45389e-21
-8.08418e-21
5.56703e-21
-8.5961e-21
6.73454e-21
-8.96684e-21
7.93776e-21
-9.21148e-21
9.15903e-21
-9.3361e-21
1.03842e-20
-9.35157e-21
1.15993e-20
-9.26682e-21
1.27912e-20
-9.08876e-21
1.39489e-20
-8.82479e-21
1.50613e-20
-8.48165e-21
1.61193e-20
-8.06581e-21
1.71138e-20
-7.58359e-21
1.8037e-20
-7.0411e-21
1.88816e-20
-6.44422e-21
1.96415e-20
-5.7991e-21
2.03108e-20
-5.11137e-21
2.08849e-20
-4.38689e-21
2.13591e-20
-3.63129e-21
2.17301e-20
-2.84991e-21
2.1995e-20
-2.04748e-21
2.21537e-20
-1.22899e-21
2.22054e-20
-4.00276e-22
2.21505e-20
4.31527e-22
2.19888e-20
1.25941e-21
2.17208e-20
2.07637e-21
2.13474e-20
2.87653e-21
2.0871e-20
3.65505e-21
2.02951e-20
4.4072e-21
1.9624e-20
5.12781e-21
1.88629e-20
5.8112e-21
1.80175e-20
6.45188e-21
1.7094e-20
7.04389e-21
1.61001e-20
7.58152e-21
1.50433e-20
8.05897e-21
1.39324e-20
8.4701e-21
1.27766e-20
8.80884e-21
1.1587e-20
9.06876e-21
1.03749e-20
9.24309e-21
9.15262e-21
9.32499e-21
7.93407e-21
9.30666e-21
6.73474e-21
9.17965e-21
5.56899e-21
8.93619e-21
4.45536e-21
8.56444e-21
3.41909e-21
8.05022e-21
2.4741e-21
7.38534e-21
1.63683e-21
6.55239e-21
9.54181e-22
5.51897e-21
4.45321e-22
4.2659e-21
1.24153e-22
2.773e-21
1.07017e-21
9.13379e-23
-1.15802e-21
3.83383e-22
-3.06778e-21
8.31277e-22
-4.73508e-21
1.43013e-21
-6.14045e-21
2.15447e-21
-7.30067e-21
2.98659e-21
-8.24724e-21
3.90399e-21
-9.00256e-21
4.88842e-21
-9.58159e-21
5.92242e-21
-1.00019e-20
6.98801e-21
-1.0278e-20
8.07126e-21
-1.04202e-20
9.15875e-21
-1.04398e-20
1.02375e-20
-1.03461e-20
1.12963e-20
-1.0148e-20
1.23248e-20
-9.8536e-21
1.33133e-20
-9.4704e-21
1.42533e-20
-9.00599e-21
1.51369e-20
-8.46734e-21
1.59572e-20
-7.86137e-21
1.67076e-20
-7.19465e-21
1.73825e-20
-6.47397e-21
1.79769e-20
-5.7057e-21
1.84865e-20
-4.89635e-21
1.89073e-20
-4.05195e-21
1.92365e-20
-3.17885e-21
1.94719e-20
-2.28263e-21
1.96128e-20
-1.36957e-21
1.9659e-20
-4.46146e-22
1.96103e-20
4.80597e-22
1.94667e-20
1.40331e-21
1.92286e-20
2.31477e-21
1.8897e-20
3.20844e-21
1.84738e-20
4.07848e-21
1.79621e-20
4.91905e-21
1.73659e-20
5.72426e-21
1.66896e-20
6.48786e-21
1.59383e-20
7.20357e-21
1.51176e-20
7.86509e-21
1.42341e-20
8.46577e-21
1.32948e-20
8.99923e-21
1.23075e-20
9.45863e-21
1.12807e-20
9.83703e-21
1.02239e-20
1.0127e-20
9.1474e-21
1.03213e-20
8.0625e-21
1.04117e-20
6.98146e-21
1.03898e-20
5.91725e-21
1.02461e-20
4.88603e-21
9.96926e-21
3.90446e-21
9.54856e-21
2.98464e-21
8.97279e-21
2.151e-21
8.22038e-21
1.43258e-21
7.27354e-21
8.3209e-22
6.12054e-21
3.74814e-22
4.72752e-21
9.26572e-23
3.05513e-21
1.16289e-21
8.91766e-23
-1.24705e-21
3.26531e-22
-3.3058e-21
7.12471e-22
-5.12155e-21
1.22536e-21
-6.65395e-21
1.85099e-21
-7.9271e-21
2.57085e-21
-8.96809e-21
3.36516e-21
-9.79805e-21
4.21879e-21
-1.04365e-20
5.11687e-21
-1.09012e-20
6.04381e-21
-1.12061e-20
6.98704e-21
-1.13645e-20
7.9342e-21
-1.13878e-20
8.87434e-21
-1.1287e-20
9.79742e-21
-1.10717e-20
1.06941e-20
-1.07509e-20
1.15562e-20
-1.03329e-20
1.2376e-20
-9.82625e-21
1.31467e-20
-9.23839e-21
1.3862e-20
-8.57694e-21
1.45164e-20
-7.84924e-21
1.51049e-20
-7.06263e-21
1.56231e-20
-6.22399e-21
1.60671e-20
-5.34043e-21
1.64339e-20
-4.41872e-21
1.67208e-20
-3.46573e-21
1.69263e-20
-2.48801e-21
1.70494e-20
-1.49238e-21
1.70895e-20
-4.85941e-22
1.70467e-20
5.23776e-22
1.69212e-20
1.52932e-21
1.67132e-20
2.52322e-21
1.64239e-20
3.49837e-21
1.60549e-20
4.44807e-21
1.56089e-20
5.36573e-21
1.50891e-20
6.24474e-21
1.44995e-20
7.0783e-21
1.38443e-20
7.85957e-21
1.31286e-20
8.58169e-21
1.23579e-20
9.23752e-21
1.15385e-20
9.81984e-21
1.06772e-20
1.03212e-20
9.78168e-21
1.0734e-20
8.86009e-21
1.10502e-20
7.92161e-21
1.12614e-20
6.9761e-21
1.1359e-20
6.03472e-21
1.1333e-20
5.10987e-21
1.11728e-20
4.21362e-21
1.08678e-20
3.35968e-21
1.04044e-20
2.56822e-21
9.76585e-21
1.85175e-21
8.93932e-21
1.22016e-21
7.90627e-21
7.06761e-22
6.6359e-21
3.276e-22
5.10585e-21
8.86132e-23
3.29656e-21
1.25156e-21
7.29093e-23
-1.32054e-21
2.72827e-22
-3.50645e-21
5.96947e-22
-5.44642e-21
1.02915e-21
-7.08693e-21
1.55671e-21
-8.45548e-21
2.1633e-21
-9.5756e-21
2.83475e-21
-1.04705e-20
3.55773e-21
-1.11605e-20
4.31858e-21
-1.16631e-20
5.10502e-21
-1.19935e-20
5.90617e-21
-1.21665e-20
6.71127e-21
-1.21937e-20
7.51067e-21
-1.20871e-20
8.2957e-21
-1.18574e-20
9.05861e-21
-1.15143e-20
9.79215e-21
-1.10669e-20
1.04897e-20
-1.05242e-20
1.11454e-20
-9.89435e-21
1.17539e-20
-9.18572e-21
1.23106e-20
-8.40615e-21
1.28111e-20
-7.56326e-21
1.32518e-20
-6.66477e-21
1.36294e-20
-5.71814e-21
1.39414e-20
-4.7308e-21
1.41856e-20
-3.70989e-21
1.43605e-20
-2.66282e-21
1.44651e-20
-1.59689e-21
1.44992e-20
-5.1972e-22
1.44626e-20
5.60828e-22
1.43553e-20
1.637e-21
1.41782e-20
2.70093e-21
1.39319e-20
3.74525e-21
1.3618e-20
4.76266e-21
1.32385e-20
5.74585e-21
1.27964e-20
6.68763e-21
1.22947e-20
7.5808e-21
1.17371e-20
8.41801e-21
1.1128e-20
9.19169e-21
1.04721e-20
9.89436e-21
9.7748e-21
1.05182e-20
9.04184e-21
1.10553e-20
8.27976e-21
1.14972e-20
7.49574e-21
1.18355e-20
6.69771e-21
1.20608e-20
5.8943e-21
1.21638e-20
5.09481e-21
1.2134e-20
4.30943e-21
1.19599e-20
3.54992e-21
1.16286e-20
2.82917e-21
1.11267e-20
2.15744e-21
1.04396e-20
1.54999e-21
9.54758e-21
1.02788e-21
8.42939e-21
5.9648e-22
7.06777e-21
2.69231e-22
5.43593e-21
6.65082e-23
3.49831e-21
1.31808e-21
5.64352e-23
-1.37699e-21
2.21162e-22
-3.6721e-21
4.85097e-22
-5.71111e-21
8.37563e-22
-7.44005e-21
1.26702e-21
-8.88556e-21
1.76173e-21
-1.00709e-20
2.31093e-21
-1.10204e-20
2.90303e-21
-1.17533e-20
3.52668e-21
-1.22874e-20
4.17203e-21
-1.26395e-20
4.82951e-21
-1.28245e-20
5.49052e-21
-1.28552e-20
6.14717e-21
-1.27442e-20
6.79237e-21
-1.25029e-20
7.41939e-21
-1.21416e-20
8.02235e-21
-1.16701e-20
8.59573e-21
-1.10977e-20
9.13484e-21
-1.04336e-20
9.63511e-21
-9.6861e-21
1.00927e-20
-8.86378e-21
1.0504e-20
-7.97469e-21
1.08663e-20
-7.0271e-21
1.11766e-20
-6.02855e-21
1.14329e-20
-4.98711e-21
1.16335e-20
-3.91042e-21
1.17771e-20
-2.80639e-21
1.18632e-20
-1.68272e-21
1.18913e-20
-5.47521e-22
1.18611e-20
5.91293e-22
1.17729e-20
1.72558e-21
1.1627e-20
2.8473e-21
1.14242e-20
3.94849e-21
1.1166e-20
5.0214e-21
1.08539e-20
6.05844e-21
1.04902e-20
7.0519e-21
1.00776e-20
7.9941e-21
9.61907e-21
8.87718e-21
9.11815e-21
9.69334e-21
8.57879e-21
1.04345e-20
8.00538e-21
1.10924e-20
7.40274e-21
1.16587e-20
6.77628e-21
1.21246e-20
6.132e-21
1.24807e-20
5.47643e-21
1.27174e-20
4.8166e-21
1.28247e-20
4.16046e-21
1.27913e-20
3.51685e-21
1.26045e-20
2.89469e-21
1.22521e-20
2.30347e-21
1.17191e-20
1.75567e-21
1.09878e-20
1.26332e-21
1.00411e-20
8.32424e-22
8.86112e-21
4.80667e-22
7.42008e-21
2.20928e-22
5.69409e-21
5.91687e-23
3.6617e-21
1.37725e-21
4.48755e-23
-1.42239e-21
1.71765e-22
-3.79937e-21
3.75368e-22
-5.91513e-21
6.48164e-22
-7.71323e-21
9.8129e-22
-9.21903e-21
1.36638e-21
-1.04564e-20
1.79393e-21
-1.14483e-20
2.25473e-21
-1.22145e-20
2.74044e-21
-1.27735e-20
3.24341e-21
-1.31428e-20
3.75621e-21
-1.33376e-20
4.27185e-21
-1.3371e-20
4.7842e-21
-1.32567e-20
5.28783e-21
-1.30067e-20
5.77743e-21
-1.26313e-20
6.24817e-21
-1.21409e-20
6.69589e-21
-1.15455e-20
7.11674e-21
-1.08545e-20
7.50735e-21
-1.00767e-20
7.8646e-21
-9.22102e-21
8.18583e-21
-8.29589e-21
8.46841e-21
-7.30967e-21
8.71061e-21
-6.27071e-21
8.91068e-21
-5.18714e-21
9.0674e-21
-4.06703e-21
9.17966e-21
-2.91849e-21
9.24683e-21
-1.74967e-21
9.26844e-21
-5.68896e-22
9.24453e-21
6.1546e-22
9.17539e-21
1.79499e-21
9.06129e-21
2.96168e-21
8.90283e-21
4.10726e-21
8.70097e-21
5.22362e-21
8.45708e-21
6.30272e-21
8.17293e-21
7.33647e-21
7.85061e-21
8.31688e-21
7.49246e-21
9.23583e-21
7.10121e-21
1.00851e-20
6.67994e-21
1.08563e-20
6.23208e-21
1.15409e-20
5.76145e-21
1.213e-20
5.27227e-21
1.26143e-20
4.76926e-21
1.29843e-20
4.25769e-21
1.32297e-20
3.74319e-21
1.33399e-20
3.23165e-21
1.33035e-20
2.72994e-21
1.31072e-20
2.24525e-21
1.27373e-20
1.78649e-21
1.21782e-20
1.36117e-21
1.14143e-20
9.75893e-22
1.04266e-20
6.44348e-22
9.19227e-21
3.74217e-22
7.69035e-21
1.70482e-22
5.8996e-21
4.31796e-23
3.78743e-21
1.42041e-21
3.16525e-23
-1.4538e-21
1.22099e-22
-3.89004e-21
2.67531e-22
-6.06066e-21
4.62496e-22
-7.90826e-21
7.00752e-22
-9.45731e-21
9.76018e-22
-1.07316e-20
1.28147e-21
-1.17538e-20
1.61093e-21
-1.2544e-20
1.9587e-21
-1.31213e-20
2.31865e-21
-1.35028e-20
2.68577e-21
-1.37047e-20
3.05488e-21
-1.37402e-20
3.42201e-21
-1.36238e-20
3.78285e-21
-1.33675e-20
4.13359e-21
-1.2982e-20
4.4708e-21
-1.24781e-20
4.7916e-21
-1.18662e-20
5.09307e-21
-1.11558e-20
5.37288e-21
-1.03564e-20
5.6287e-21
-9.47672e-21
5.85873e-21
-8.52582e-21
6.06121e-21
-7.51203e-21
6.23478e-21
-6.44413e-21
6.37805e-21
-5.33022e-21
6.49017e-21
-4.17893e-21
6.57033e-21
-2.99843e-21
6.61829e-21
-1.79743e-21
6.63373e-21
-5.84178e-22
6.61656e-21
6.32768e-22
6.5667e-21
1.84501e-21
6.48455e-21
3.044e-21
6.37066e-21
4.22134e-21
6.22582e-21
5.36869e-21
6.05096e-21
6.47782e-21
5.84719e-21
7.54052e-21
5.61608e-21
8.54831e-21
5.35925e-21
9.493e-21
5.07877e-21
1.03659e-20
4.7768e-21
1.11586e-20
4.45582e-21
1.18622e-20
4.11856e-21
1.24676e-20
3.76803e-21
1.29653e-20
3.4076e-21
1.33452e-20
3.04119e-21
1.35965e-20
2.67299e-21
1.37086e-20
2.30676e-21
1.36703e-20
1.94813e-21
1.34661e-20
1.6022e-21
1.30837e-20
1.27364e-21
1.25074e-20
9.68807e-22
1.17187e-20
6.96803e-22
1.06986e-20
4.6131e-22
9.42836e-21
2.65172e-22
7.88588e-21
1.19546e-22
6.04313e-21
2.95032e-23
3.87838e-21
1.44988e-21
1.91753e-23
-1.47325e-21
7.37507e-23
-3.94421e-21
1.61642e-22
-6.14829e-21
2.79153e-22
-8.02548e-21
4.22771e-22
-9.60064e-21
5.88388e-22
-1.0897e-20
7.7211e-22
-1.19372e-20
9.70346e-22
-1.27419e-20
1.17984e-21
-1.33305e-20
1.39711e-21
-1.37198e-20
1.61715e-21
-1.39246e-20
1.83899e-21
-1.39618e-20
2.06045e-21
-1.38451e-20
2.27781e-21
-1.35847e-20
2.48857e-21
-1.31926e-20
2.69124e-21
-1.26806e-20
2.88405e-21
-1.20588e-20
3.06534e-21
-1.13369e-20
3.23353e-21
-1.05244e-20
3.3874e-21
-9.6304e-21
3.52564e-21
-8.66385e-21
3.64736e-21
-7.63349e-21
3.75151e-21
-6.54796e-21
3.83753e-21
-5.4159e-21
3.9048e-21
-4.24589e-21
3.95298e-21
-3.04636e-21
3.9816e-21
-1.82591e-21
3.99057e-21
-5.93068e-22
3.97986e-21
6.43501e-22
3.94963e-21
1.87527e-21
3.90003e-21
3.09364e-21
3.8313e-21
4.29013e-21
3.74383e-21
5.45625e-21
3.63828e-21
6.5835e-21
3.51543e-21
7.66352e-21
3.37614e-21
8.68777e-21
3.22144e-21
9.64787e-21
3.0525e-21
1.05351e-20
2.87069e-21
1.13407e-20
2.67756e-21
1.20556e-20
2.47474e-21
1.26706e-20
2.26403e-21
1.31762e-20
2.04706e-21
1.35624e-20
1.82614e-21
1.38177e-20
1.60476e-21
1.39302e-20
1.38576e-21
1.38894e-20
1.16976e-21
1.36825e-20
9.61046e-22
1.32924e-20
7.64557e-22
1.27033e-20
5.84095e-22
1.18996e-20
4.18323e-22
1.08641e-20
2.73846e-22
9.57128e-21
1.60465e-22
7.99911e-21
7.58396e-23
6.12851e-21
2.09005e-23
3.93131e-21
1.47073e-21
6.76871e-24
-1.47953e-21
2.57572e-23
-3.96274e-21
5.64608e-23
-6.17837e-21
9.7056e-23
-8.06547e-21
1.46109e-22
-9.64907e-21
2.02482e-22
-1.09527e-20
2.64725e-22
-1.19989e-20
3.31512e-22
-1.28082e-20
4.01258e-22
-1.33998e-20
4.73466e-22
-1.37916e-20
5.48523e-22
-1.39992e-20
6.26477e-22
-1.40393e-20
7.01127e-22
-1.39194e-20
7.72342e-22
-1.36555e-20
8.42234e-22
-1.32621e-20
9.09898e-22
-1.27479e-20
9.7428e-22
-1.21229e-20
1.0348e-21
-1.13972e-20
1.09094e-21
-1.05803e-20
1.1423e-21
-9.68146e-21
1.18838e-21
-8.70959e-21
1.22893e-21
-7.67366e-21
1.26368e-21
-6.58229e-21
1.29241e-21
-5.44423e-21
1.3147e-21
-4.26784e-21
1.33051e-21
-3.06196e-21
1.3397e-21
-1.83499e-21
1.34229e-21
-5.95654e-22
1.33823e-21
6.4753e-22
1.3276e-21
1.88585e-21
1.31046e-21
3.11075e-21
1.28695e-21
4.31362e-21
1.25724e-21
5.48596e-21
1.22146e-21
6.61929e-21
1.17996e-21
7.70505e-21
1.13287e-21
8.73488e-21
1.08073e-21
9.70004e-21
1.02385e-21
1.0592e-20
9.62751e-22
1.14018e-20
8.97929e-22
1.21204e-20
8.30051e-22
1.27385e-20
7.60041e-22
1.32462e-20
6.89009e-22
1.36335e-20
6.14697e-22
1.3892e-20
5.37211e-22
1.40077e-20
4.62902e-22
1.39638e-20
3.91636e-22
1.37533e-20
3.23858e-22
1.33599e-20
2.58263e-22
1.2769e-20
1.94975e-22
1.19616e-20
1.41934e-22
1.09163e-20
9.80316e-23
9.61552e-21
5.50377e-23
8.04039e-21
2.15268e-23
6.15955e-21
2.27351e-24
3.95076e-21
1.47293e-21
-4.6599e-24
-1.47493e-21
-2.11996e-23
-3.94495e-21
-4.80744e-23
-6.15046e-21
-8.47368e-23
-8.02777e-21
-1.2986e-22
-9.60294e-21
-1.82543e-22
-1.08991e-20
-2.41595e-22
-1.19389e-20
-3.05483e-22
-1.27434e-20
-3.72844e-22
-1.33316e-20
-4.43098e-22
-1.37206e-20
-5.16468e-22
-1.39251e-20
-5.92981e-22
-1.39621e-20
-6.66459e-22
-1.38453e-20
-7.36698e-22
-1.35847e-20
-8.05836e-22
-1.31924e-20
-8.72859e-22
-1.26804e-20
-9.36805e-22
-1.20585e-20
-9.97013e-22
-1.13365e-20
-1.053e-21
-1.05239e-20
-1.10436e-21
-9.62968e-21
-1.15051e-21
-8.66301e-21
-1.19114e-21
-7.63257e-21
-1.226e-21
-6.547e-21
-1.25498e-21
-5.41486e-21
-1.27778e-21
-4.24473e-21
-1.29437e-21
-3.04517e-21
-1.30456e-21
-1.82469e-21
-1.30834e-21
-5.9184e-22
-1.30564e-21
6.44817e-22
-1.29652e-21
1.8767e-21
-1.281e-21
3.09517e-21
-1.25915e-21
4.2917e-21
-1.23103e-21
5.45776e-21
-1.19691e-21
6.58509e-21
-1.15703e-21
7.66508e-21
-1.11167e-21
8.68943e-21
-1.06113e-21
9.64939e-21
-1.0058e-21
1.05365e-20
-9.46112e-22
1.1342e-20
-8.82666e-22
1.20568e-20
-8.15957e-22
1.26717e-20
-7.4702e-22
1.31771e-20
-6.76818e-22
1.3563e-20
-6.03175e-22
1.38181e-20
-5.26185e-22
1.39303e-20
-4.52233e-22
1.38893e-20
-3.81084e-22
1.3682e-20
-3.1368e-22
1.32919e-20
-2.48504e-22
1.27024e-20
-1.85109e-22
1.18982e-20
-1.32726e-22
1.08631e-20
-9.15193e-23
9.57161e-21
-4.95545e-23
7.99797e-21
-1.79106e-23
6.12756e-21
-1.90195e-24
3.9323e-21
1.47094e-21
-1.87917e-23
-1.45535e-21
-6.94278e-23
-3.89297e-21
-1.53215e-22
-6.06513e-21
-2.66696e-22
-7.9128e-21
-4.0645e-22
-9.46175e-21
-5.68675e-22
-1.07355e-20
-7.49468e-22
-1.17568e-20
-9.45131e-22
-1.25465e-20
-1.15242e-21
-1.31232e-20
-1.3678e-21
-1.35041e-20
-1.58622e-21
-1.37057e-20
-1.80678e-21
-1.37406e-20
-2.02714e-21
-1.3624e-20
-2.24353e-21
-1.33675e-20
-2.4535e-21
-1.29817e-20
-2.65555e-21
-1.24776e-20
-2.84792e-21
-1.18655e-20
-3.02884e-21
-1.1155e-20
-3.19684e-21
-1.03553e-20
-3.35046e-21
-9.47548e-21
-3.48873e-21
-8.52424e-21
-3.61056e-21
-7.51024e-21
-3.71517e-21
-6.44198e-21
-3.80168e-21
-5.32798e-21
-3.86959e-21
-4.17657e-21
-3.9184e-21
-2.99613e-21
-3.94796e-21
-1.79499e-21
-3.95801e-21
-5.81673e-22
-3.94864e-21
6.3545e-22
-3.91963e-21
1.84769e-21
-3.87138e-21
3.04682e-21
-3.80405e-21
4.22429e-21
-3.71832e-21
5.37187e-21
-3.6144e-21
6.48106e-21
-3.4933e-21
7.54377e-21
-3.35549e-21
8.55144e-21
-3.20242e-21
9.49606e-21
-3.03495e-21
1.03688e-20
-2.85463e-21
1.11613e-20
-2.66271e-21
1.18646e-20
-2.46113e-21
1.24696e-20
-2.2514e-21
1.29669e-20
-2.03534e-21
1.33464e-20
-1.81502e-21
1.35971e-20
-1.59415e-21
1.37088e-20
-1.37548e-21
1.367e-20
-1.15988e-21
1.34652e-20
-9.50828e-22
1.30819e-20
-7.54367e-22
1.25057e-20
-5.76099e-22
1.17178e-20
-4.10729e-22
1.0696e-20
-2.63999e-22
9.42494e-21
-1.54333e-22
7.8853e-21
-7.53733e-23
6.04562e-21
-2.32327e-23
3.87944e-21
1.44759e-21
-2.91193e-23
-1.42598e-21
-1.16825e-22
-3.80289e-21
-2.58784e-22
-5.92102e-21
-4.50397e-22
-7.71914e-21
-6.85191e-22
-9.22497e-21
-9.57129e-22
-1.04617e-20
-1.25994e-21
-1.14522e-20
-1.58734e-21
-1.22176e-20
-1.9331e-21
-1.27759e-20
-2.29148e-21
-1.31444e-20
-2.65726e-21
-1.33386e-20
-3.02519e-21
-1.33715e-20
-3.39119e-21
-1.32569e-20
-3.75128e-21
-1.30064e-20
-4.10124e-21
-1.26307e-20
-4.43796e-21
-1.214e-20
-4.75813e-21
-1.15444e-20
-5.05937e-21
-1.08529e-20
-5.33882e-21
-1.0075e-20
-5.59473e-21
-9.21894e-21
-5.82466e-21
-8.29362e-21
-6.0273e-21
-7.30713e-21
-6.20084e-21
-6.26792e-21
-6.3446e-21
-5.18393e-21
-6.45718e-21
-4.06362e-21
-6.5383e-21
-2.91485e-21
-6.58693e-21
-1.7461e-21
-6.60331e-21
-5.65253e-22
-6.58693e-21
6.19193e-22
-6.53853e-21
1.79919e-21
-6.45777e-21
2.96607e-21
-6.34555e-21
4.11188e-21
-6.20204e-21
5.2283e-21
-6.0287e-21
6.30746e-21
-5.82629e-21
7.34122e-21
-5.59682e-21
8.32162e-21
-5.34139e-21
9.24038e-21
-5.0624e-21
1.00894e-20
-4.76163e-21
1.08601e-20
-4.44197e-21
1.15442e-20
-4.10575e-21
1.21327e-20
-3.75628e-21
1.26165e-20
-3.3966e-21
1.29858e-20
-3.0309e-21
1.32305e-20
-2.66316e-21
1.334e-20
-2.29717e-21
1.33026e-20
-1.93835e-21
1.31056e-20
-1.59341e-21
1.27358e-20
-1.26558e-21
1.21753e-20
-9.57749e-22
1.14094e-20
-6.87335e-22
1.04243e-20
-4.58798e-22
9.19219e-21
-2.61189e-22
7.68663e-21
-1.12492e-22
5.89507e-21
-2.54531e-23
3.78923e-21
1.42198e-21
-4.42508e-23
-1.38054e-21
-1.66582e-22
-3.67789e-21
-3.66726e-22
-5.7182e-21
-6.36235e-22
-7.44702e-21
-9.66957e-22
-8.89186e-21
-1.34933e-21
-1.00771e-20
-1.77456e-21
-1.1025e-20
-2.23361e-21
-1.17566e-20
-2.71795e-21
-1.22898e-20
-3.21956e-21
-1.26411e-20
-3.73126e-21
-1.28254e-20
-4.24585e-21
-1.28555e-20
-4.75744e-21
-1.2744e-20
-5.26026e-21
-1.25023e-20
-5.74919e-21
-1.21407e-20
-6.21934e-21
-1.16687e-20
-6.6666e-21
-1.10962e-20
-7.08705e-21
-1.04315e-20
-7.47737e-21
-9.6839e-21
-7.8344e-21
-8.86111e-21
-8.1555e-21
-7.97193e-21
-8.43837e-21
-7.02369e-21
-8.68081e-21
-6.02513e-21
-8.8812e-21
-4.98318e-21
-9.0381e-21
-3.90654e-21
-9.15076e-21
-2.80195e-21
-9.21848e-21
-1.6783e-21
-9.24118e-21
-5.42422e-22
-9.21832e-21
5.96309e-22
-9.15029e-21
1.73116e-21
-9.03712e-21
2.85277e-21
-8.87991e-21
3.95462e-21
-8.67927e-21
5.02749e-21
-8.43696e-21
6.06504e-21
-8.15413e-21
7.05812e-21
-7.83331e-21
8.00054e-21
-7.47633e-21
8.88294e-21
-7.08649e-21
9.69904e-21
-6.66633e-21
1.04393e-20
-6.21974e-21
1.10969e-20
-5.74999e-21
1.1662e-20
-5.26184e-21
1.21273e-20
-4.75942e-21
1.24823e-20
-4.24853e-21
1.27183e-20
-3.73425e-21
1.28243e-20
-3.22328e-21
1.27905e-20
-2.72196e-21
1.26025e-20
-2.2365e-21
1.22483e-20
-1.77694e-21
1.17154e-20
-1.35656e-21
1.0986e-20
-9.71377e-22
1.0036e-20
-6.31553e-22
8.85212e-21
-3.67877e-22
7.41848e-21
-1.74846e-22
5.69824e-21
-5.10878e-23
3.66372e-21
1.37074e-21
-5.53296e-23
-1.32451e-21
-2.15998e-22
-3.51389e-21
-4.75885e-22
-5.45512e-21
-8.25683e-22
-7.09435e-21
-1.25342e-21
-8.46148e-21
-1.74693e-21
-9.58113e-21
-2.29495e-21
-1.04747e-20
-2.88568e-21
-1.11638e-20
-3.5084e-21
-1.16653e-20
-4.15264e-21
-1.19952e-20
-4.80955e-21
-1.2167e-20
-5.46965e-21
-1.2194e-20
-6.12575e-21
-1.20867e-20
-6.76995e-21
-1.18569e-20
-7.39672e-21
-1.15129e-20
-7.99879e-21
-1.10656e-20
-8.57216e-21
-1.0522e-20
-9.11034e-21
-9.8925e-21
-9.61079e-21
-9.18291e-21
-1.00676e-20
-8.40363e-21
-1.04794e-20
-7.5598e-21
-1.08409e-20
-6.66171e-21
-1.1152e-20
-5.71398e-21
-1.1408e-20
-4.72695e-21
-1.16097e-20
-3.70488e-21
-1.17532e-20
-2.65825e-21
-1.18405e-20
-1.59118e-21
-1.18682e-20
-5.14612e-22
-1.18394e-20
5.67215e-22
-1.1751e-20
1.64291e-21
-1.16068e-20
2.70832e-21
-1.14043e-20
3.75225e-21
-1.1148e-20
4.77093e-21
-1.08363e-20
5.75347e-21
-1.04747e-20
6.69619e-21
-1.00625e-20
7.58824e-21
-9.60598e-21
8.42593e-21
-9.10543e-21
9.19824e-21
-8.56792e-21
9.90097e-21
-7.99469e-21
1.05231e-20
-7.39365e-21
1.10599e-20
-6.76722e-21
1.15001e-20
-6.1241e-21
1.18379e-20
-5.46843e-21
1.20616e-20
-4.80961e-21
1.21642e-20
-4.15294e-21
1.21323e-20
-3.50935e-21
1.19575e-20
-2.88817e-21
1.16263e-20
-2.29853e-21
1.11225e-20
-1.74517e-21
1.04313e-20
-1.25343e-21
9.54324e-21
-8.3656e-22
8.42985e-21
-4.79951e-22
7.0605e-21
-2.10157e-22
5.42581e-21
-5.00493e-23
3.50023e-21
1.32053e-21
-7.00524e-23
-1.25306e-21
-2.67818e-22
-3.31272e-21
-5.89514e-22
-5.13024e-21
-1.01953e-21
-6.66138e-21
-1.54521e-21
-7.93304e-21
-2.15131e-21
-8.97257e-21
-2.82247e-21
-9.80125e-21
-3.54517e-21
-1.04391e-20
-4.30565e-21
-1.09028e-20
-5.09203e-21
-1.12071e-20
-5.89239e-21
-1.1365e-20
-6.69704e-21
-1.1388e-20
-7.49566e-21
-1.12866e-20
-8.28051e-21
-1.1071e-20
-9.04256e-21
-1.07497e-20
-9.77579e-21
-1.03317e-20
-1.04725e-20
-9.8243e-21
-1.11283e-20
-9.23635e-21
-1.17361e-20
-8.5743e-21
-1.2293e-20
-7.84668e-21
-1.27929e-20
-7.05929e-21
-1.32339e-20
-6.2208e-21
-1.36111e-20
-5.33635e-21
-1.39235e-20
-4.41488e-21
-1.41673e-20
-3.46075e-21
-1.43427e-20
-2.48326e-21
-1.44473e-20
-1.48634e-21
-1.44822e-20
-4.80191e-22
-1.44456e-20
5.30961e-22
-1.43395e-20
1.53622e-21
-1.41625e-20
2.53167e-21
-1.39173e-20
3.50649e-21
-1.36038e-20
4.45762e-21
-1.32255e-20
5.37448e-21
-1.27839e-20
6.25453e-21
-1.22834e-20
7.0869e-21
-1.17265e-20
7.8689e-21
-1.11186e-20
8.58923e-21
-1.04633e-20
9.24527e-21
-9.76682e-21
9.82553e-21
-9.03433e-21
1.03269e-20
-8.27302e-21
1.07376e-20
-7.48943e-21
1.10536e-20
-6.6918e-21
1.12628e-20
-5.88826e-21
1.13597e-20
-5.08907e-21
1.1332e-20
-4.30446e-21
1.11718e-20
-3.54336e-21
1.08629e-20
-2.82118e-21
1.03997e-20
-2.15653e-21
9.76442e-21
-1.55103e-21
8.93354e-21
-1.01323e-21
7.89218e-21
-5.89863e-22
6.63296e-21
-2.79054e-22
5.11142e-21
-8.00883e-23
3.30008e-21
1.24034e-21
-8.40405e-23
-1.16819e-21
-3.21549e-22
-3.0718e-21
-7.06094e-22
-4.74267e-21
-1.2198e-21
-6.14478e-21
-1.84535e-21
-7.30481e-21
-2.56445e-21
-8.25086e-21
-3.35911e-21
-9.00412e-21
-4.21345e-21
-9.58234e-21
-5.11097e-21
-1.00031e-20
-6.03811e-21
-1.02778e-20
-6.98078e-21
-1.04204e-20
-7.9281e-21
-1.04389e-20
-8.86724e-21
-1.0346e-20
-9.79034e-21
-1.01465e-20
-1.06859e-20
-9.85297e-21
-1.15485e-20
-9.46809e-21
-1.23669e-20
-9.00519e-21
-1.31381e-20
-8.46435e-21
-1.38518e-20
-7.86018e-21
-1.45071e-20
-7.19085e-21
-1.50939e-20
-6.4724e-21
-1.56133e-20
-5.70111e-21
-1.60554e-20
-4.8942e-21
-1.64238e-20
-4.04639e-21
-1.67087e-20
-3.17592e-21
-1.6916e-20
-2.27591e-21
-1.70369e-20
-1.3656e-21
-1.70792e-20
-4.37916e-22
-1.70342e-20
4.85751e-22
-1.69111e-20
1.41283e-21
-1.67011e-20
2.32109e-21
-1.64145e-20
3.21927e-21
-1.60438e-20
4.08585e-21
-1.5601e-20
4.93066e-21
-1.50797e-20
5.7319e-21
-1.44932e-20
6.49919e-21
-1.38363e-20
7.21057e-21
-1.31235e-20
7.8754e-21
-1.23512e-20
8.47179e-21
-1.15345e-20
9.0079e-21
-1.06714e-20
9.46282e-21
-9.77804e-21
9.8435e-21
-8.85457e-21
1.01294e-20
-7.91805e-21
1.03254e-20
-6.97133e-21
1.04122e-20
-6.03155e-21
1.03911e-20
-5.10424e-21
1.02433e-20
-4.21105e-21
9.96911e-21
-3.35865e-21
9.54516e-21
-2.56043e-21
8.96402e-21
-1.84182e-21
8.21489e-21
-1.23022e-21
7.27646e-21
-7.12261e-22
6.11405e-21
-3.15015e-22
4.71338e-21
-7.38006e-23
3.05651e-21
1.16649e-21
-9.66047e-23
-1.07023e-21
-3.78082e-22
-2.78735e-21
-8.27495e-22
-4.29014e-21
-1.42732e-21
-5.54197e-21
-2.15387e-21
-6.57529e-21
-2.98738e-21
-7.41434e-21
-3.9066e-21
-8.08195e-21
-4.89133e-21
-8.59472e-21
-5.92546e-21
-8.96625e-21
-6.99106e-21
-9.20958e-21
-8.07483e-21
-9.33422e-21
-9.1612e-21
-9.35019e-21
-1.02403e-20
-9.26484e-21
-1.12979e-20
-9.08694e-21
-1.23268e-20
-8.82264e-21
-1.33137e-20
-8.47969e-21
-1.42544e-20
-8.0634e-21
-1.51363e-20
-7.58132e-21