/*--------------------------------*- C++ -*----------------------------------*\
| =========                 |                                                 |
| \\      /  F ield         | OpenFOAM: The Open Source CFD Toolbox           |
|  \\    /   O peration     | Version:  5.0                                   |
|   \\  /    A nd           | Web:      www.OpenFOAM.org                      |
|    \\/     M anipulation  |                                                 |
\*---------------------------------------------------------------------------*/
FoamFile
{
    version     2.0;
    format      ascii;
    class       volScalarField;
    location    "4.9";
    object      p;
}
// * * * * * * * * * * * * * * * * * * * * * * * * * * * * * * * * * * * * * //

dimensions      [0 2 -2 0 0 0 0];

internalField   nonuniform List<scalar> 
50
(
18.9727
17.0204
15.0387
13.0617
11.0864
9.11537
7.14009
5.07171
3.05363
1.02207
19.0398
17.0224
15.0387
13.0598
11.0521
9.1145
7.10649
5.06785
3.05059
0.983113
19.0909
17.0242
15.0387
13.0584
11.0262
9.12021
7.08767
5.06543
3.04778
0.953616
19.0219
17.0224
15.0387
13.059
11.0608
9.09061
7.09131
5.06618
3.04913
1.01826
18.8038
17.016
15.0389
13.0621
11.1698
8.99526
7.10197
5.06932
3.05619
1.22919
)
;

boundaryField
{
    top
    {
        type            zeroGradient;
    }
    bottom
    {
        type            symmetryPlane;
    }
    inlet
    {
        type            fixedValue;
        value           uniform 20;
    }
    outlet
    {
        type            fixedValue;
        value           uniform 0;
    }
    frontAndBack
    {
        type            empty;
    }
}


// ************************************************************************* //
