/*--------------------------------*- C++ -*----------------------------------*\
| =========                 |                                                 |
| \\      /  F ield         | OpenFOAM: The Open Source CFD Toolbox           |
|  \\    /   O peration     | Version:  5.0                                   |
|   \\  /    A nd           | Web:      www.OpenFOAM.org                      |
|    \\/     M anipulation  |                                                 |
\*---------------------------------------------------------------------------*/
FoamFile
{
    version     2.0;
    format      ascii;
    class       surfaceScalarField;
    location    "47";
    object      phi;
}
// * * * * * * * * * * * * * * * * * * * * * * * * * * * * * * * * * * * * * //

dimensions      [0 3 -1 0 0 0 0];

internalField   nonuniform List<scalar> 
3052
(
-3.90802e-18
-3.90277e-17
2.73475e-17
-2.93222e-17
1.25478e-16
-1.02553e-16
2.36684e-16
-1.17405e-16
3.41057e-16
-1.07984e-16
4.5281e-16
-1.14087e-16
5.71547e-16
-1.20874e-16
6.91896e-16
-1.22522e-16
8.10397e-16
-1.20712e-16
9.25433e-16
-1.17109e-16
1.03537e-15
-1.11906e-16
1.13888e-15
-1.05283e-16
1.23458e-15
-9.73271e-17
1.32158e-15
-8.84746e-17
1.39884e-15
-7.8706e-17
1.4656e-15
-6.80973e-17
1.52253e-15
-5.81976e-17
1.57042e-15
-4.89852e-17
1.60853e-15
-3.91589e-17
1.63674e-15
-2.90813e-17
1.65473e-15
-1.87824e-17
1.6635e-15
-9.3495e-18
1.66363e-15
-5.95977e-19
1.65582e-15
7.53191e-18
1.63943e-15
1.61199e-17
1.61548e-15
2.3797e-17
1.58495e-15
3.03703e-17
1.5497e-15
3.52246e-17
1.50995e-15
3.97055e-17
1.46711e-15
4.30068e-17
1.42104e-15
4.63877e-17
1.37277e-15
4.89795e-17
1.3221e-15
5.16285e-17
1.26999e-15
5.33656e-17
1.21614e-15
5.52309e-17
1.16115e-15
5.65201e-17
1.10408e-15
5.85958e-17
1.04555e-15
6.01106e-17
9.85247e-16
6.18296e-17
9.23686e-16
6.30539e-17
8.60523e-16
6.4502e-17
7.96324e-16
6.54906e-17
7.30769e-16
6.67728e-17
6.64289e-16
6.77491e-17
5.96808e-16
6.87874e-17
5.28937e-16
6.92174e-17
4.60993e-16
6.93245e-17
3.93527e-16
6.89558e-17
3.26671e-16
6.83988e-17
2.61653e-16
6.65579e-17
1.99605e-16
6.35172e-17
1.4174e-16
5.89808e-17
9.10226e-17
5.26224e-17
4.4583e-17
4.75229e-17
1.54163e-17
2.97183e-17
1.54401e-17
3.5302e-17
-7.11078e-17
8.11117e-17
-8.89608e-17
1.21733e-16
-1.62116e-16
1.81291e-16
-1.87051e-16
2.73716e-16
-2.07127e-16
3.73487e-16
-2.1921e-16
4.73629e-16
-2.25885e-16
5.73955e-16
-2.27533e-16
6.73424e-16
-2.24457e-16
7.70005e-16
-2.17769e-16
8.62309e-16
-2.07843e-16
9.49045e-16
-1.95225e-16
1.02924e-15
-1.80327e-16
1.1018e-15
-1.6378e-16
1.16647e-15
-1.45792e-16
1.22311e-15
-1.26981e-16
1.2715e-15
-1.08456e-16
1.311e-15
-9.02062e-17
1.34208e-15
-7.1553e-17
1.36472e-15
-5.28921e-17
1.37951e-15
-3.42976e-17
1.38621e-15
-1.66159e-17
1.3853e-15
1.8911e-19
1.37681e-15
1.58734e-17
1.36206e-15
3.10079e-17
1.34145e-15
4.44424e-17
1.31607e-15
5.60245e-17
1.28598e-15
6.54404e-17
1.25246e-15
7.36546e-17
1.21556e-15
8.05139e-17
1.1764e-15
8.68122e-17
1.13501e-15
9.2021e-17
1.09217e-15
9.67265e-17
1.04758e-15
1.00431e-16
1.00178e-15
1.03804e-16
9.54431e-16
1.06558e-16
9.06306e-16
1.0954e-16
8.56971e-16
1.1207e-16
8.06773e-16
1.14589e-16
7.5534e-16
1.16691e-16
7.03033e-16
1.18898e-16
6.49481e-16
1.20811e-16
5.95261e-16
1.22823e-16
5.40327e-16
1.24536e-16
4.85019e-16
1.26091e-16
4.29262e-16
1.27028e-16
3.735e-16
1.27367e-16
3.18164e-16
1.26753e-16
2.64095e-16
1.25274e-16
2.11336e-16
1.22088e-16
1.60192e-16
1.16693e-16
1.13393e-16
1.09376e-16
7.07314e-17
9.68613e-17
3.93226e-17
8.14819e-17
1.2386e-17
5.65523e-17
2.7813e-17
1.03568e-18
-7.71971e-17
4.02756e-17
-1.35529e-16
8.71268e-17
-2.10998e-16
1.45572e-16
-2.49676e-16
2.15007e-16
-2.79701e-16
2.92866e-16
-2.99184e-16
3.72895e-16
-3.07656e-16
4.53311e-16
-3.09397e-16
5.33222e-16
-3.05604e-16
6.11181e-16
-2.96548e-16
6.85642e-16
-2.82895e-16
7.55439e-16
-2.6554e-16
8.19855e-16
-2.45275e-16
8.78306e-16
-2.22569e-16
9.30317e-16
-1.98092e-16
9.75747e-16
-1.72507e-16
1.01398e-15
-1.46727e-16
1.04478e-15
-1.20846e-16
1.06835e-15
-9.49571e-17
1.08501e-15
-6.92252e-17
1.09508e-15
-4.40622e-17
1.09876e-15
-1.98255e-17
1.09626e-15
3.07689e-18
1.08807e-15
2.45908e-17
1.075e-15
4.45002e-17
1.0576e-15
6.23651e-17
1.03622e-15
7.77897e-17
1.01119e-15
9.09161e-17
9.83096e-16
1.02045e-16
9.5247e-16
1.11485e-16
9.19889e-16
1.19576e-16
8.85638e-16
1.26482e-16
8.50016e-16
1.32288e-16
8.13242e-16
1.37109e-16
7.7554e-16
1.41205e-16
7.37023e-16
1.44877e-16
6.97928e-16
1.48306e-16
6.58302e-16
1.51468e-16
6.18185e-16
1.54411e-16
5.77506e-16
1.57182e-16
5.36291e-16
1.59821e-16
4.94579e-16
1.62411e-16
4.52427e-16
1.6491e-16
4.09889e-16
1.67196e-16
3.67116e-16
1.69028e-16
3.24181e-16
1.70235e-16
2.81285e-16
1.70622e-16
2.38849e-16
1.70015e-16
1.97305e-16
1.67869e-16
1.56875e-16
1.63621e-16
1.18369e-16
1.56842e-16
8.2243e-17
1.45877e-16
5.1574e-17
1.31104e-16
2.51405e-17
1.07903e-16
7.40751e-18
7.52104e-17
3.53177e-17
-7.82213e-18
-6.76858e-17
3.32747e-17
-1.70351e-16
6.59151e-17
-2.42764e-16
1.09033e-16
-2.93311e-16
1.60842e-16
-3.32512e-16
2.17426e-16
-3.56812e-16
2.77084e-16
-3.68161e-16
3.38181e-16
-3.70941e-16
3.99318e-16
-3.66721e-16
4.58922e-16
-3.55992e-16
5.15782e-16
-3.39713e-16
5.69022e-16
-3.18819e-16
6.17995e-16
-2.94242e-16
6.62203e-16
-2.66759e-16
7.01295e-16
-2.37086e-16
7.34964e-16
-2.06049e-16
7.62835e-16
-1.74412e-16
7.84746e-16
-1.42589e-16
8.00875e-16
-1.10862e-16
8.1144e-16
-7.95879e-17
8.16789e-16
-4.91444e-17
8.1713e-16
-1.99775e-17
8.12849e-16
7.58317e-18
8.04323e-16
3.32906e-17
7.92205e-16
5.68912e-17
7.76848e-16
7.80004e-17
7.58636e-16
9.63863e-17
7.37761e-16
1.12088e-16
7.14726e-16
1.25357e-16
6.89794e-16
1.36495e-16
6.63471e-16
1.4578e-16
6.35906e-16
1.53447e-16
6.07547e-16
1.59785e-16
5.78468e-16
1.65052e-16
5.49023e-16
1.69548e-16
5.19203e-16
1.73558e-16
4.89357e-16
1.7718e-16
4.59437e-16
1.80504e-16
4.29588e-16
1.83597e-16
3.99741e-16
1.8656e-16
3.69929e-16
1.89527e-16
3.40014e-16
1.92427e-16
3.1009e-16
1.95173e-16
2.80114e-16
1.97635e-16
2.50142e-16
1.99576e-16
2.20135e-16
2.00821e-16
1.90288e-16
2.01215e-16
1.60821e-16
2.00484e-16
1.32102e-16
1.98079e-16
1.04287e-16
1.93197e-16
7.74713e-17
1.84831e-16
5.36719e-17
1.73087e-16
3.20173e-17
1.53255e-16
1.6626e-17
1.26134e-16
6.84871e-18
8.64366e-17
4.22298e-17
4.85557e-18
-7.02109e-17
2.08638e-17
-1.82009e-16
4.27073e-17
-2.6346e-16
7.12074e-17
-3.22896e-16
1.05777e-16
-3.68192e-16
1.44497e-16
-3.96236e-16
1.86078e-16
-4.10106e-16
2.29006e-16
-4.13976e-16
2.72019e-16
-4.09682e-16
3.13907e-16
-3.97839e-16
3.53628e-16
-3.79461e-16
3.90566e-16
-3.55814e-16
4.24269e-16
-3.27974e-16
4.54348e-16
-2.96819e-16
4.80489e-16
-2.63171e-16
5.0247e-16
-2.2794e-16
5.20012e-16
-1.91871e-16
5.3307e-16
-1.55549e-16
5.41734e-16
-1.19424e-16
5.46255e-16
-8.39546e-17
5.46832e-16
-4.95999e-17
5.4379e-16
-1.68052e-17
5.37405e-16
1.40604e-17
5.28142e-16
4.26896e-17
5.16382e-16
6.87933e-17
5.02544e-16
9.20702e-17
4.86809e-16
1.12335e-16
4.69513e-16
1.29653e-16
4.5088e-16
1.442e-16
4.31264e-16
1.56255e-16
4.1082e-16
1.66096e-16
3.8983e-16
1.7412e-16
3.6845e-16
1.80601e-16
3.47047e-16
1.8585e-16
3.2576e-16
1.90179e-16
3.04767e-16
1.9396e-16
2.84143e-16
1.97238e-16
2.64041e-16
2.00151e-16
2.44433e-16
2.02876e-16
2.2538e-16
2.05498e-16
2.06827e-16
2.08122e-16
1.88725e-16
2.10741e-16
1.70922e-16
2.13293e-16
1.53394e-16
2.15586e-16
1.3602e-16
2.17379e-16
1.18801e-16
2.1845e-16
1.01824e-16
2.18707e-16
8.52708e-17
2.17894e-16
6.92443e-17
2.15217e-16
5.37746e-17
2.09742e-16
3.94696e-17
2.00844e-16
2.60756e-17
1.86425e-16
1.56484e-17
1.66599e-16
6.38446e-18
1.3595e-16
5.34035e-19
9.28592e-17
4.27967e-17
6.67758e-18
-7.54773e-17
9.96705e-18
-1.85208e-16
1.91497e-17
-2.74017e-16
3.50855e-17
-3.39797e-16
5.47236e-17
-3.88347e-16
7.71046e-17
-4.18956e-16
1.01591e-16
-4.34828e-16
1.27142e-16
-4.39598e-16
1.52533e-16
-4.35092e-16
1.77046e-16
-4.22403e-16
2.00108e-16
-4.02616e-16
2.21297e-16
-3.77077e-16
2.40216e-16
-3.46917e-16
2.56546e-16
-3.13116e-16
2.70094e-16
-2.76632e-16
2.80646e-16
-2.3839e-16
2.88085e-16
-1.99188e-16
2.92373e-16
-1.59707e-16
2.93641e-16
-1.20524e-16
2.92029e-16
-8.21848e-17
2.8781e-16
-4.52004e-17
2.8122e-16
-1.00525e-17
2.72601e-16
2.2853e-17
2.62251e-16
5.31708e-17
2.50553e-16
8.06336e-17
2.37736e-16
1.04995e-16
2.24077e-16
1.26146e-16
2.09748e-16
1.44129e-16
1.95017e-16
1.59109e-16
1.80062e-16
1.71341e-16
1.65122e-16
1.81148e-16
1.50338e-16
1.88894e-16
1.35958e-16
1.94946e-16
1.2215e-16
1.99566e-16
1.09081e-16
2.03147e-16
9.68021e-17
2.0609e-16
8.54642e-17
2.08439e-16
7.51064e-17
2.10354e-16
6.57139e-17
2.12133e-16
5.71692e-17
2.13918e-16
4.95509e-17
2.15658e-16
4.2754e-17
2.17455e-16
3.67278e-17
2.19271e-16
3.13709e-17
2.2091e-16
2.6467e-17
2.22242e-16
2.17359e-17
2.23113e-16
1.72997e-17
2.23154e-16
1.34682e-17
2.21949e-16
1.01886e-17
2.18955e-16
7.21183e-18
2.13185e-16
4.19415e-18
2.03545e-16
2.17988e-18
1.89805e-16
-1.52177e-19
1.67833e-16
-4.77737e-19
1.36725e-16
-6.17776e-19
9.33083e-17
4.21745e-17
1.30399e-18
-7.72129e-17
-4.55407e-19
-1.84154e-16
5.37586e-19
-2.75526e-16
4.45869e-18
-3.44103e-16
9.63298e-18
-3.93846e-16
1.61626e-17
-4.25817e-16
2.42631e-17
-4.43225e-16
3.33083e-17
-4.4896e-16
4.19581e-17
-4.44084e-16
4.99202e-17
-4.30719e-16
5.71426e-17
-4.10187e-16
6.33061e-17
-3.8355e-16
6.81149e-17
-3.51973e-16
7.13548e-17
-3.1654e-16
7.2861e-17
-2.78283e-16
7.25114e-17
-2.38148e-16
7.02347e-17
-1.97004e-16
6.60597e-17
-1.55601e-16
6.00825e-17
-1.14621e-16
5.24974e-17
-7.46504e-17
4.35207e-17
-3.62614e-17
3.34132e-17
4.68565e-20
2.2422e-17
3.38278e-17
1.08352e-17
6.47502e-17
-1.08874e-18
9.25306e-17
-1.30973e-17
1.17009e-16
-2.5019e-17
1.38088e-16
-3.66539e-17
1.55835e-16
-4.78496e-17
1.70403e-16
-5.84133e-17
1.82057e-16
-6.8219e-17
1.91103e-16
-7.70778e-17
1.97941e-16
-8.48853e-17
2.02933e-16
-9.14645e-17
2.06331e-16
-9.67947e-17
2.0863e-16
-1.00703e-16
2.1016e-16
-1.03146e-16
2.11019e-16
-1.04171e-16
2.11515e-16
-1.03836e-16
2.11915e-16
-1.02203e-16
2.12413e-16
-9.93728e-17
2.12938e-16
-9.53171e-17
2.13516e-16
-9.00505e-17
2.14132e-16
-8.37688e-17
2.14799e-16
-7.68187e-17
2.15451e-16
-6.94162e-17
2.15825e-16
-6.15567e-17
2.15481e-16
-5.31144e-17
2.13965e-16
-4.43559e-17
2.10768e-16
-3.58789e-17
2.05075e-16
-2.75987e-17
1.95908e-16
-2.00789e-17
1.81406e-16
-1.26274e-17
1.61053e-16
-7.09943e-18
1.31076e-16
-2.91191e-18
8.87456e-17
3.92557e-17
-3.15571e-18
-7.39531e-17
-8.77078e-18
-1.78698e-16
-1.54897e-17
-2.68836e-16
-2.25322e-17
-3.36949e-16
-3.02776e-17
-3.8625e-16
-3.78933e-17
-4.18616e-16
-4.51844e-17
-4.36496e-16
-5.24545e-17
-4.42297e-16
-5.9323e-17
-4.37805e-16
-6.61971e-17
-4.24444e-16
-7.34628e-17
-4.035e-16
-8.12231e-17
-3.76324e-16
-8.95768e-17
-3.44094e-16
-9.86129e-17
-3.07925e-16
-1.08405e-16
-2.68878e-16
-1.18994e-16
-2.27924e-16
-1.30379e-16
-1.85963e-16
-1.42514e-16
-1.43809e-16
-1.55274e-16
-1.02188e-16
-1.68488e-16
-6.17414e-17
-1.81948e-16
-2.30727e-17
-1.95441e-16
1.33032e-17
-2.08741e-16
4.69331e-17
-2.21618e-16
7.74514e-17
-2.33826e-16
1.04604e-16
-2.45177e-16
1.28261e-16
-2.55515e-16
1.48397e-16
-2.64724e-16
1.65061e-16
-2.72649e-16
1.78419e-16
-2.79174e-16
1.88731e-16
-2.84186e-16
1.96343e-16
-2.87621e-16
2.01633e-16
-2.89357e-16
2.04963e-16
-2.89332e-16
2.06612e-16
-2.87398e-16
2.07036e-16
-2.83373e-16
2.06479e-16
-2.77429e-16
2.05445e-16
-2.69776e-16
2.04239e-16
-2.60421e-16
2.02966e-16
-2.49307e-16
2.01721e-16
-2.3651e-16
2.00584e-16
-2.22172e-16
1.99627e-16
-2.06439e-16
1.98899e-16
-1.89512e-16
1.98427e-16
-1.71643e-16
1.98134e-16
-1.53056e-16
1.97743e-16
-1.33861e-16
1.96873e-16
-1.14187e-16
1.9509e-16
-9.43839e-17
1.91899e-16
-7.49806e-17
1.86526e-16
-5.66788e-17
1.77828e-16
-3.95412e-17
1.65073e-16
-2.466e-17
1.45792e-16
-1.2257e-17
1.18133e-16
-3.46322e-18
8.00654e-17
3.5784e-17
-5.44167e-18
-6.86158e-17
-1.56733e-17
-1.68153e-16
-2.96894e-17
-2.54221e-16
-4.66693e-17
-3.19515e-16
-6.59162e-17
-3.67026e-16
-8.63346e-17
-3.98595e-16
-1.07082e-16
-4.16259e-16
-1.27919e-16
-4.21958e-16
-1.48661e-16
-4.17593e-16
-1.69339e-16
-4.04311e-16
-1.89903e-16
-3.83472e-16
-2.10359e-16
-3.56363e-16
-2.30703e-16
-3.24204e-16
-2.50943e-16
-2.8813e-16
-2.71042e-16
-2.49203e-16
-2.90963e-16
-2.0841e-16
-3.10654e-16
-1.66667e-16
-3.30023e-16
-1.24818e-16
-3.48944e-16
-8.36217e-17
-3.67259e-16
-4.37586e-17
-3.84796e-16
-5.83217e-18
-4.01367e-16
2.96207e-17
-4.16791e-16
6.21315e-17
-4.30842e-16
9.13214e-17
-4.4332e-16
1.16942e-16
-4.54055e-16
1.38919e-16
-4.6297e-16
1.57274e-16
-4.69965e-16
1.72084e-16
-4.74932e-16
1.83473e-16
-4.77768e-16
1.91726e-16
-4.78426e-16
1.97209e-16
-4.76812e-16
2.00273e-16
-4.72858e-16
2.01286e-16
-4.66668e-16
2.00735e-16
-4.58156e-16
1.98861e-16
-4.47285e-16
1.95979e-16
-4.34103e-16
1.92653e-16
-4.18622e-16
1.89181e-16
-4.00924e-16
1.85714e-16
-3.811e-16
1.82367e-16
-3.59313e-16
1.79264e-16
-3.35724e-16
1.76525e-16
-3.10502e-16
1.74217e-16
-2.8384e-16
1.72363e-16
-2.56015e-16
1.70889e-16
-2.27328e-16
1.69582e-16
-1.97981e-16
1.68118e-16
-1.6818e-16
1.6612e-16
-1.38443e-16
1.63094e-16
-1.09542e-16
1.58342e-16
-8.20659e-17
1.51017e-16
-5.68492e-17
1.39838e-16
-3.48732e-17
1.23577e-16
-1.72346e-17
1.00651e-16
-5.60008e-18
6.78698e-17
3.01593e-17
-6.81375e-18
-6.15997e-17
-2.13448e-17
-1.53004e-16
-4.20114e-17
-2.32692e-16
-6.74082e-17
-2.93453e-16
-9.64965e-17
-3.37807e-16
-1.2783e-16
-3.67481e-16
-1.60197e-16
-3.84188e-16
-1.9294e-16
-3.8953e-16
-2.25826e-16
-3.85056e-16
-2.58524e-16
-3.71989e-16
-2.90788e-16
-3.51589e-16
-3.22443e-16
-3.25076e-16
-3.53373e-16
-2.93651e-16
-3.83465e-16
-2.58404e-16
-4.1263e-16
-2.20403e-16
-4.40753e-16
-1.80635e-16
-4.6773e-16
-1.40022e-16
-4.93433e-16
-9.94234e-17
-5.17738e-16
-5.96038e-17
-5.40499e-16
-2.12623e-17
-5.61566e-16
1.49991e-17
-5.80793e-16
4.8626e-17
-5.98018e-16
7.91655e-17
-6.13057e-16
1.06188e-16
-6.25697e-16
1.29443e-16
-6.35821e-16
1.4894e-16
-6.43392e-16
1.64814e-16
-6.48375e-16
1.77105e-16
-6.50652e-16
1.85848e-16
-6.50124e-16
1.91344e-16
-6.46805e-16
1.94073e-16
-6.40751e-16
1.94416e-16
-6.31963e-16
1.9272e-16
-6.20412e-16
1.89435e-16
-6.06078e-16
1.84815e-16
-5.89053e-16
1.79265e-16
-5.69328e-16
1.73265e-16
-5.46932e-16
1.67145e-16
-5.2196e-16
1.61125e-16
-4.94574e-16
1.55368e-16
-4.64961e-16
1.50036e-16
-4.3331e-16
1.45262e-16
-3.99802e-16
1.41138e-16
-3.6466e-16
1.37697e-16
-3.28206e-16
1.34895e-16
-2.90798e-16
1.32564e-16
-2.52677e-16
1.30466e-16
-2.14158e-16
1.28284e-16
-1.75906e-16
1.25599e-16
-1.38776e-16
1.21828e-16
-1.03611e-16
1.16174e-16
-7.15598e-17
1.07749e-16
-4.35469e-17
9.56438e-17
-2.15225e-17
7.7525e-17
-6.55637e-18
5.27707e-17
2.35843e-17
-7.75826e-18
-5.372e-17
-2.56468e-17
-1.34353e-16
-5.18259e-17
-2.0548e-16
-8.42614e-17
-2.6018e-16
-1.21555e-16
-3.0025e-16
-1.61976e-16
-3.27153e-16
-2.04065e-16
-3.42259e-16
-2.46922e-16
-3.46841e-16
-2.90007e-16
-3.42169e-16
-3.32825e-16
-3.29429e-16
-3.7495e-16
-3.09743e-16
-4.16064e-16
-2.84266e-16
-4.55925e-16
-2.54099e-16
-4.94327e-16
-2.20314e-16
-5.311e-16
-1.83934e-16
-5.66093e-16
-1.4594e-16
-5.99154e-16
-1.07244e-16
-6.30139e-16
-6.87084e-17
-6.58903e-16
-3.10967e-17
-6.85304e-16
4.9018e-18
-7.09222e-16
3.8678e-17
-7.30549e-16
6.97148e-17
-7.49177e-16
9.75364e-17
-7.64942e-16
1.21684e-16
-7.77583e-16
1.41848e-16
-7.86995e-16
1.58213e-16
-7.93265e-16
1.71065e-16
-7.96433e-16
1.8034e-16
-7.96306e-16
1.85843e-16
-7.92789e-16
1.8799e-16
-7.86047e-16
1.87507e-16
-7.76183e-16
1.84745e-16
-7.63193e-16
1.79949e-16
-7.47031e-16
1.73518e-16
-7.27756e-16
1.65808e-16
-7.05447e-16
1.57246e-16
-6.80149e-16
1.48275e-16
-6.51924e-16
1.39248e-16
-6.20892e-16
1.30432e-16
-5.87225e-16
1.22044e-16
-5.51132e-16
1.14268e-16
-5.12811e-16
1.07259e-16
-4.72455e-16
1.01137e-16
-4.30318e-16
9.5962e-17
-3.86772e-16
9.17134e-17
-3.4221e-16
8.83005e-17
-2.96936e-16
8.55517e-17
-2.51314e-16
8.32408e-17
-2.061e-16
8.10497e-17
-1.62316e-16
7.84953e-17
-1.2102e-16
7.49856e-17
-8.31294e-17
7.00704e-17
-5.08012e-17
6.22075e-17
-2.45891e-17
5.14076e-17
-7.45878e-18
3.48605e-17
1.60818e-17
-8.753e-18
-4.47493e-17
-2.89984e-17
-1.13301e-16
-5.9293e-17
-1.74053e-16
-9.72047e-17
-2.21359e-16
-1.40961e-16
-2.56141e-16
-1.8859e-16
-2.79516e-16
-2.38426e-16
-2.92484e-16
-2.89336e-16
-2.95994e-16
-3.40551e-16
-2.91077e-16
-3.91425e-16
-2.78737e-16
-4.41418e-16
-2.59995e-16
-4.90069e-16
-2.35886e-16
-5.37028e-16
-2.07415e-16
-5.82018e-16
-1.756e-16
-6.24806e-16
-1.41424e-16
-6.65192e-16
-1.05832e-16
-7.02994e-16
-6.97257e-17
-7.38051e-16
-3.39297e-17
-7.70202e-16
7.87226e-19
-7.99317e-16
3.37497e-17
-8.25278e-16
6.43653e-17
-8.48024e-16
9.21653e-17
-8.67532e-16
1.16737e-16
-8.83685e-16
1.37561e-16
-8.96094e-16
1.54066e-16
-9.04648e-16
1.66679e-16
-9.09677e-16
1.76082e-16
-9.11216e-16
1.81931e-16
-9.08913e-16
1.83646e-16
-9.02769e-16
1.81973e-16
-8.93111e-16
1.78003e-16
-8.80067e-16
1.71895e-16
-8.63596e-16
1.63696e-16
-8.43681e-16
1.5385e-16
-8.20403e-16
1.42798e-16
-7.93854e-16
1.30982e-16
-7.6412e-16
1.18842e-16
-7.31298e-16
1.06741e-16
-6.95526e-16
9.49825e-17
-6.56985e-16
8.38188e-17
-6.15889e-16
7.34652e-17
-5.72445e-16
6.41029e-17
-5.26858e-16
5.58771e-17
-4.7941e-16
4.88731e-17
-4.30496e-16
4.31258e-17
-3.80547e-16
3.86012e-17
-3.29891e-16
3.52097e-17
-2.78944e-16
3.28176e-17
-2.28555e-16
3.12178e-17
-1.79827e-16
3.01279e-17
-1.3376e-16
2.91637e-17
-9.20613e-17
2.75995e-17
-5.55466e-17
2.60343e-17
-2.74649e-17
2.17161e-17
-8.55221e-18
1.55248e-17
7.49578e-18
-9.40264e-18
-3.52019e-17
-3.13626e-17
-9.05166e-17
-6.45388e-17
-1.39736e-16
-1.0637e-16
-1.78562e-16
-1.5477e-16
-2.07313e-16
-2.0762e-16
-2.26599e-16
-2.63087e-16
-2.37021e-16
-3.19868e-16
-2.39236e-16
-3.77023e-16
-2.34003e-16
-4.3379e-16
-2.22148e-16
-4.89502e-16
-2.0452e-16
-5.43629e-16
-1.82029e-16
-5.95731e-16
-1.55598e-16
-6.45461e-16
-1.26162e-16
-6.92539e-16
-9.46489e-17
-7.36728e-16
-6.19606e-17
-7.77818e-16
-2.89558e-17
-8.15629e-16
3.56539e-18
-8.50008e-16
3.48583e-17
-8.8082e-16
6.42614e-17
-9.07952e-16
9.12182e-17
-9.3132e-16
1.15297e-16
-9.50983e-16
1.36244e-16
-9.6702e-16
1.53524e-16
-9.78927e-16
1.6595e-16
-9.86366e-16
1.74099e-16
-9.89987e-16
1.79678e-16
-9.9009e-16
1.81995e-16
-9.86004e-16
1.79519e-16
-9.77645e-16
1.73625e-16
-9.65691e-16
1.66141e-16
-9.50189e-16
1.56536e-16
-9.31018e-16
1.44721e-16
-9.08233e-16
1.313e-16
-8.81941e-16
1.16772e-16
-8.52261e-16
1.01593e-16
-8.19308e-16
8.62011e-17
-7.83213e-16
7.09663e-17
-7.4412e-16
5.62165e-17
-7.02217e-16
4.22342e-17
-6.57717e-16
2.92669e-17
-6.1083e-16
1.75199e-17
-5.61772e-16
7.15939e-18
-5.10829e-16
-1.68512e-18
-4.58421e-16
-8.94103e-18
-4.04991e-16
-1.4575e-17
-3.50885e-16
-1.85904e-17
-2.96546e-16
-2.10159e-17
-2.4283e-16
-2.19127e-17
-1.90901e-16
-2.14578e-17
-1.42096e-16
-1.9846e-17
-9.72653e-17
-1.67202e-17
-5.93676e-17
-1.36758e-17
-2.84027e-17
-9.21866e-18
-8.3016e-18
-5.60546e-18
-8.72911e-19
-9.77309e-18
-2.52348e-17
-3.28107e-17
-6.66874e-17
-6.76677e-17
-1.03725e-16
-1.11796e-16
-1.33406e-16
-1.63016e-16
-1.55636e-16
-2.19054e-16
-1.70461e-16
-2.77983e-16
-1.78082e-16
-3.38381e-16
-1.78849e-16
-3.99213e-16
-1.73261e-16
-4.59612e-16
-1.61926e-16
-5.18843e-16
-1.45541e-16
-5.76295e-16
-1.24863e-16
-6.31482e-16
-1.00722e-16
-6.84009e-16
-7.39605e-17
-7.3356e-16
-4.54424e-17
-7.79859e-16
-1.60095e-17
-8.22691e-16
1.35253e-17
-8.61868e-16
4.24004e-17
-8.9725e-16
6.99052e-17
-9.28701e-16
9.54155e-17
-9.56115e-16
1.184e-16
-9.79381e-16
1.38438e-16
-9.98473e-16
1.55312e-16
-1.0135e-15
1.686e-16
-1.02432e-15
1.76804e-16
-1.03061e-15
1.80371e-16
-1.03285e-15
1.81809e-16
-1.03138e-15
1.80365e-16
-1.02588e-15
1.73905e-16
-1.01622e-15
1.6393e-16
-1.0026e-15
1.52571e-16
-9.85161e-16
1.39227e-16
-9.63986e-16
1.23731e-16
-9.3919e-16
1.06738e-16
-9.10897e-16
8.87512e-17
-8.79241e-16
7.0244e-17
-8.44351e-16
5.16337e-17
-8.06367e-16
3.33202e-17
-7.65448e-16
1.56377e-17
-7.21776e-16
-1.09828e-18
-6.7556e-16
-1.66205e-17
-6.27009e-16
-3.07013e-17
-5.76331e-16
-4.31462e-17
-5.23816e-16
-5.37924e-17
-4.69882e-16
-6.25146e-17
-4.14974e-16
-6.92152e-17
-3.59437e-16
-7.38105e-17
-3.03702e-16
-7.62256e-17
-2.4866e-16
-7.64059e-17
-1.95515e-16
-7.4268e-17
-1.45235e-16
-6.97338e-17
-9.99484e-17
-6.32916e-17
-5.99831e-17
-5.29007e-17
-2.97658e-17
-4.14811e-17
-9.43503e-18
-2.66131e-17
-1.03467e-17
-9.84116e-18
-1.52275e-17
-3.3201e-17
-4.25124e-17
-6.85808e-17
-6.71048e-17
-1.13527e-16
-8.7442e-17
-1.65739e-16
-1.0295e-16
-2.22945e-16
-1.13158e-16
-2.8316e-16
-1.17859e-16
-3.4492e-16
-1.17114e-16
-4.07127e-16
-1.11149e-16
-4.68876e-16
-1.0037e-16
-5.29376e-16
-8.52977e-17
-5.87978e-16
-6.65594e-17
-6.44152e-16
-4.48616e-17
-6.97481e-16
-2.09667e-17
-7.47616e-16
4.35108e-18
-7.94275e-16
3.03034e-17
-8.37229e-16
5.61352e-17
-8.763e-16
8.11271e-17
-9.11344e-16
1.04627e-16
-9.4226e-16
1.26039e-16
-9.68951e-16
1.44857e-16
-9.91349e-16
1.60662e-16
-1.00929e-15
1.7315e-16
-1.02263e-15
1.81875e-16
-1.03182e-15
1.85908e-16
-1.03725e-15
1.85673e-16
-1.03839e-15
1.82813e-16
-1.03504e-15
1.76901e-16
-1.02799e-15
1.66829e-16
-1.0174e-15
1.53374e-16
-1.00264e-15
1.37912e-16
-9.83893e-16
1.20642e-16
-9.6151e-16
1.01559e-16
-9.35644e-16
8.11225e-17
-9.06425e-16
5.98259e-17
-8.73994e-16
3.81263e-17
-8.38485e-16
1.64604e-17
-8.00046e-16
-4.77505e-18
-7.58833e-16
-2.52166e-17
-7.15032e-16
-4.45442e-17
-6.68839e-16
-6.24738e-17
-6.20449e-16
-7.87527e-17
-5.7006e-16
-9.31598e-17
-5.17948e-16
-1.05497e-16
-4.64516e-16
-1.15591e-16
-4.10192e-16
-1.23276e-16
-3.55295e-16
-1.28391e-16
-3.00238e-16
-1.30759e-16
-2.45845e-16
-1.30176e-16
-1.93252e-16
-1.26475e-16
-1.43927e-16
-1.19434e-16
-9.84428e-17
-1.07857e-16
-6.02517e-17
-9.34708e-17
-2.86355e-17
-7.29135e-17
-8.30471e-18
-4.80334e-17
-1.87217e-17
-9.8614e-18
-5.20185e-18
-3.26042e-17
-1.87976e-17
-6.74402e-17
-3.11327e-17
-1.1163e-16
-4.22753e-17
-1.63055e-16
-5.11066e-17
-2.19435e-16
-5.67212e-17
-2.78793e-16
-5.85344e-17
-3.39677e-16
-5.62895e-17
-4.00991e-16
-4.99655e-17
-4.61813e-16
-3.97597e-17
-5.21348e-16
-2.6038e-17
-5.7892e-16
-9.29147e-18
-6.33993e-16
9.88467e-18
-6.86124e-16
3.08318e-17
-7.3496e-16
5.28497e-17
-7.80216e-16
7.5223e-17
-8.21663e-16
9.72439e-17
-8.59117e-16
1.18252e-16
-8.92452e-16
1.37636e-16
-9.21571e-16
1.54847e-16
-9.46411e-16
1.69403e-16
-9.6691e-16
1.80897e-16
-9.82981e-16
1.88971e-16
-9.94596e-16
1.93252e-16
-1.00224e-15
1.93331e-16
-1.00627e-15
1.89541e-16
-1.00601e-15
1.82476e-16
-1.00124e-15
1.72131e-16
-9.92726e-16
1.58372e-16
-9.80846e-16
1.41607e-16
-9.65309e-16
1.22529e-16
-9.46079e-16
1.01613e-16
-9.23399e-16
7.91159e-17
-8.97451e-16
5.54542e-17
-8.68404e-16
3.10826e-17
-8.36401e-16
6.45171e-18
-8.01598e-16
-1.79976e-17
-7.64136e-16
-4.18732e-17
-7.24176e-16
-6.4803e-17
-6.81889e-16
-8.64625e-17
-6.37458e-16
-1.06551e-16
-5.91064e-16
-1.24804e-16
-5.42879e-16
-1.40965e-16
-4.93152e-16
-1.54815e-16
-4.42255e-16
-1.6612e-16
-3.90585e-16
-1.74673e-16
-3.38409e-16
-1.8023e-16
-2.86072e-16
-1.82528e-16
-2.34384e-16
-1.81258e-16
-1.84494e-16
-1.76007e-16
-1.372e-16
-1.66185e-16
-9.47291e-17
-1.51976e-16
-5.66833e-17
-1.30127e-16
-2.84269e-17
-1.03383e-16
-9.15135e-18
-6.7847e-17
-2.79002e-17
-9.20927e-18
4.28191e-18
-3.10962e-17
3.7037e-18
-6.42356e-17
3.05719e-18
-1.06283e-16
6.12297e-19
-1.55183e-16
-1.8985e-18
-2.08775e-16
-3.16539e-18
-2.65181e-16
-2.23614e-18
-3.23015e-16
1.42736e-18
-3.81225e-16
8.07147e-18
-4.38917e-16
1.76806e-17
-4.95308e-16
3.00438e-17
-5.49734e-16
4.47959e-17
-6.01656e-16
6.14592e-17
-6.50641e-16
7.94664e-17
-6.96337e-16
9.81994e-17
-7.38466e-16
1.17006e-16
-7.76801e-16
1.35238e-16
-8.11175e-16
1.52282e-16
-8.41473e-16
1.67598e-16
-8.67624e-16
1.80674e-16
-8.89586e-16
1.91057e-16
-9.07338e-16
1.98346e-16
-9.2088e-16
2.02218e-16
-9.30298e-16
2.02396e-16
-9.35882e-16
1.98695e-16
-9.37753e-16
1.91265e-16
-9.35748e-16
1.80409e-16
-9.29884e-16
1.66277e-16
-9.20469e-16
1.49038e-16
-9.07768e-16
1.2903e-16
-8.91816e-16
1.06745e-16
-8.7264e-16
8.26441e-17
-8.50397e-16
5.71246e-17
-8.25264e-16
3.06097e-17
-7.97417e-16
3.55346e-18
-7.67013e-16
-2.36064e-17
-7.34205e-16
-5.04441e-17
-6.99126e-16
-7.65646e-17
-6.61933e-16
-1.01602e-16
-6.22774e-16
-1.25223e-16
-5.81824e-16
-1.4713e-16
-5.39218e-16
-1.6703e-16
-4.95112e-16
-1.84662e-16
-4.49703e-16
-1.99766e-16
-4.03336e-16
-2.12088e-16
-3.56339e-16
-2.21344e-16
-3.08929e-16
-2.27247e-16
-2.61364e-16
-2.29458e-16
-2.14355e-16
-2.2754e-16
-1.68857e-16
-2.21009e-16
-1.2621e-16
-2.09192e-16
-8.64304e-17
-1.90198e-16
-5.33423e-17
-1.65769e-16
-2.51755e-17
-1.30805e-16
-7.12601e-18
-8.68126e-17
-3.50889e-17
-8.59225e-18
1.28934e-17
-2.87016e-17
2.45454e-17
-5.91958e-17
3.43614e-17
-9.76278e-17
3.9716e-17
-1.4231e-16
4.29445e-17
-1.91262e-16
4.56342e-17
-2.42741e-16
4.90323e-17
-2.95473e-16
5.39458e-17
-3.4849e-16
6.08267e-17
-4.0096e-16
6.98228e-17
-4.52144e-16
8.08496e-17
-5.01405e-16
9.36607e-17
-5.48228e-16
1.07873e-16
-5.92195e-16
1.23029e-16
-6.32982e-16
1.38581e-16
-6.70321e-16
1.53953e-16
-7.04008e-16
1.68527e-16
-7.3388e-16
1.81772e-16
-7.59859e-16
1.932e-16
-7.81897e-16
2.02362e-16
-7.99993e-16
2.08823e-16
-8.14165e-16
2.1222e-16
-8.24463e-16
2.12235e-16
-8.31006e-16
2.08696e-16
-8.34004e-16
2.01479e-16
-8.33584e-16
1.90707e-16
-8.29778e-16
1.76537e-16
-8.22675e-16
1.59198e-16
-8.12479e-16
1.38908e-16
-7.99374e-16
1.16053e-16
-7.83483e-16
9.10226e-17
-7.64909e-16
6.43042e-17
-7.43807e-16
3.6292e-17
-7.20343e-16
7.4729e-18
-6.94685e-16
-2.17547e-17
-6.66992e-16
-5.09089e-17
-6.37405e-16
-7.96269e-17
-6.06061e-16
-1.07471e-16
-5.73088e-16
-1.34134e-16
-5.38619e-16
-1.59245e-16
-5.02784e-16
-1.82536e-16
-4.65703e-16
-2.03677e-16
-4.27464e-16
-2.22421e-16
-3.88239e-16
-2.38467e-16
-3.48295e-16
-2.51553e-16
-3.07916e-16
-2.61317e-16
-2.67225e-16
-2.67452e-16
-2.2638e-16
-2.69556e-16
-1.86e-16
-2.67136e-16
-1.4699e-16
-2.59456e-16
-1.0973e-16
-2.45499e-16
-7.63046e-17
-2.25209e-16
-4.55922e-17
-1.94243e-16
-2.33489e-17
-1.55129e-16
-7.92817e-18
-1.02598e-16
-4.30313e-17
-7.44356e-18
2.05631e-17
-2.55391e-17
4.28376e-17
-5.22515e-17
6.16961e-17
-8.57839e-17
7.3718e-17
-1.247e-16
8.18661e-17
-1.673e-16
8.79112e-17
-2.12027e-16
9.33923e-17
-2.5776e-16
9.93314e-17
-3.03651e-16
1.06352e-16
-3.48969e-16
1.14718e-16
-3.93035e-16
1.24459e-16
-4.35269e-16
1.35405e-16
-4.75176e-16
1.47297e-16
-5.12384e-16
1.59747e-16
-5.46594e-16
1.72323e-16
-5.77597e-16
1.84479e-16
-6.05187e-16
1.95668e-16
-6.29231e-16
2.05363e-16
-6.49665e-16
2.13225e-16
-6.66493e-16
2.18799e-16
-6.7975e-16
2.21754e-16
-6.89509e-16
2.21662e-16
-6.95845e-16
2.18324e-16
-6.98937e-16
2.1155e-16
-6.98937e-16
2.01332e-16
-6.9602e-16
1.87676e-16
-6.90273e-16
1.70786e-16
-6.81869e-16
1.50816e-16
-6.70952e-16
1.28112e-16
-6.57723e-16
1.02967e-16
-6.42308e-16
7.58525e-17
-6.24893e-16
4.71352e-17
-6.05586e-16
1.73377e-17
-5.84597e-16
-1.31709e-17
-5.62039e-16
-4.38759e-17
-5.3811e-16
-7.44291e-17
-5.12893e-16
-1.04355e-16
-4.86556e-16
-1.33355e-16
-4.59154e-16
-1.61019e-16
-4.30832e-16
-1.87098e-16
-4.01649e-16
-2.11219e-16
-3.71709e-16
-2.33148e-16
-3.41022e-16
-2.52545e-16
-3.09724e-16
-2.69193e-16
-2.77977e-16
-2.82722e-16
-2.4602e-16
-2.92793e-16
-2.13871e-16
-2.98977e-16
-1.816e-16
-3.01009e-16
-1.49616e-16
-2.98143e-16
-1.1855e-16
-2.89761e-16
-8.93686e-17
-2.74777e-16
-6.14955e-17
-2.5079e-16
-3.86818e-17
-2.19595e-16
-1.80281e-17
-1.74537e-16
-4.98979e-18
-1.16366e-16
-4.80769e-17
-6.34691e-18
2.67693e-17
-2.15329e-17
5.81733e-17
-4.35158e-17
8.41951e-17
-7.08807e-17
1.0141e-16
-1.02624e-16
1.13429e-16
-1.37327e-16
1.22178e-16
-1.7367e-16
1.29311e-16
-2.10712e-16
1.35988e-16
-2.47763e-16
1.4299e-16
-2.84199e-16
1.50695e-16
-3.19448e-16
1.59202e-16
-3.52965e-16
1.68414e-16
-3.84335e-16
1.78145e-16
-4.13199e-16
1.88106e-16
-4.39336e-16
1.97949e-16
-4.62552e-16
2.07222e-16
-4.82732e-16
2.15368e-16
-4.99736e-16
2.21937e-16
-5.13549e-16
2.26612e-16
-5.24138e-16
2.29036e-16
-5.31673e-16
2.28933e-16
-5.3618e-16
2.25908e-16
-5.37898e-16
2.19777e-16
-5.36926e-16
2.10418e-16
-5.33544e-16
1.97791e-16
-5.27827e-16
1.81922e-16
-5.20039e-16
1.62968e-16
-5.10245e-16
1.41121e-16
-4.98738e-16
1.16688e-16
-4.85577e-16
9.00132e-17
-4.71063e-16
6.15194e-17
-4.55234e-16
3.1616e-17
-4.38385e-16
7.66237e-19
-4.20535e-16
-3.06311e-17
-4.01969e-16
-6.20918e-17
-3.82691e-16
-9.32571e-17
-3.62952e-16
-1.23687e-16
-3.42716e-16
-1.531e-16
-3.22178e-16
-1.8112e-16
-3.01278e-16
-2.07504e-16
-2.80181e-16
-2.31884e-16
-2.58799e-16
-2.54034e-16
-2.37232e-16
-2.73617e-16
-2.15407e-16
-2.90406e-16
-1.93524e-16
-3.04044e-16
-1.71585e-16
-3.14184e-16
-1.49651e-16
-3.20312e-16
-1.27552e-16
-3.22191e-16
-1.05631e-16
-3.19103e-16
-8.4374e-17
-3.10232e-16
-6.37331e-17
-2.94097e-16
-4.53489e-17
-2.70788e-16
-2.70157e-17
-2.34869e-16
-1.4615e-17
-1.88778e-16
-5.50234e-18
-1.25676e-16
-5.35805e-17
-5.11596e-18
3.18992e-17
-1.6504e-17
6.97532e-17
-3.2856e-17
1.0078e-16
-5.30862e-17
1.21897e-16
-7.64335e-17
1.36621e-16
-1.01904e-16
1.47241e-16
-1.28455e-16
1.55434e-16
-1.55362e-16
1.62493e-16
-1.82083e-16
1.69278e-16
-2.08167e-16
1.76283e-16
-2.33116e-16
1.83618e-16
-2.56496e-16
1.91224e-16
-2.77885e-16
1.98972e-16
-2.97052e-16
2.06711e-16
-3.13741e-16
2.14118e-16
-3.27904e-16
2.20847e-16
-3.39286e-16
2.26258e-16
-3.48126e-16
2.30267e-16
-3.5441e-16
2.32459e-16
-3.58108e-16
2.32277e-16
-3.58994e-16
2.29458e-16
-3.57554e-16
2.24088e-16
-3.53924e-16
2.15864e-16
-3.48464e-16
2.04669e-16
-3.41205e-16
1.90357e-16
-3.32527e-16
1.73073e-16
-3.22428e-16
1.52833e-16
-3.11318e-16
1.29954e-16
-2.99169e-16
1.04615e-16
-2.86397e-16
7.72959e-17
-2.72967e-16
4.82716e-17
-2.59277e-16
1.80966e-17
-2.45276e-16
-1.29512e-17
-2.31325e-16
-4.42994e-17
-2.17355e-16
-7.5684e-17
-2.03692e-16
-1.06552e-16
-1.90232e-16
-1.36703e-16
-1.77242e-16
-1.65672e-16
-1.64541e-16
-1.9334e-16
-1.52337e-16
-2.19273e-16
-1.40439e-16
-2.43328e-16
-1.28993e-16
-2.65065e-16
-1.17755e-16
-2.84323e-16
-1.06881e-16
-3.00696e-16
-9.63001e-17
-3.14036e-16
-8.60147e-17
-3.23951e-16
-7.54921e-17
-3.30172e-16
-6.48109e-17
-3.31967e-16
-5.42347e-17
-3.28657e-16
-4.41168e-17
-3.19526e-16
-3.47249e-17
-3.03689e-16
-2.45032e-17
-2.78137e-16
-1.67445e-17
-2.44922e-16
-7.66402e-18
-1.96338e-16
-1.75206e-18
-1.31822e-16
-5.53654e-17
-3.6471e-18
3.54694e-17
-1.08453e-17
7.64876e-17
-2.06551e-17
1.10603e-16
-3.28038e-17
1.3379e-16
-4.6728e-17