/*--------------------------------*- C++ -*----------------------------------*\
| =========                 |                                                 |
| \\      /  F ield         | OpenFOAM: The Open Source CFD Toolbox           |
|  \\    /   O peration     | Version:  5.0                                   |
|   \\  /    A nd           | Web:      www.OpenFOAM.org                      |
|    \\/     M anipulation  |                                                 |
\*---------------------------------------------------------------------------*/
FoamFile
{
    version     2.0;
    format      ascii;
    class       surfaceScalarField;
    location    "3.6";
    object      phi;
}
// * * * * * * * * * * * * * * * * * * * * * * * * * * * * * * * * * * * * * //

dimensions      [0 3 -1 0 0 0 0];

internalField   nonuniform List<scalar> 
85
(
0.000196879
5.49793e-07
0.000197002
-1.23458e-07
0.000196983
1.94947e-08
0.000196711
2.71297e-07
0.000196641
7.02472e-08
0.000192356
4.28482e-06
0.00018793
4.42603e-06
0.000187254
6.76475e-07
0.000186887
3.66942e-07
3.00889e-07
0.000157826
-1.95953e-07
0.000157692
1.02389e-08
0.00015768
3.18475e-08
0.000157779
1.72578e-07
0.000157431
4.177e-07
0.000158711
3.00496e-06
0.000159521
3.6161e-06
0.000159559
6.37896e-07
0.000159656
2.70233e-07
9.80147e-07
0.000118599
-1.21248e-06
0.00011835
2.59255e-07
0.00011835
3.14867e-08
0.000118556
-3.34451e-08
0.000118222
7.52259e-07
0.000120553
6.73592e-07
0.000122444
1.72494e-06
0.000122798
2.83722e-07
0.000123167
-9.84944e-08
1.61505e-06
7.90632e-05
-1.2839e-06
7.89633e-05
3.5921e-07
7.89822e-05
1.25449e-08
7.90884e-05
-1.39646e-07
7.9165e-05
6.75653e-07
8.0192e-05
-3.53393e-07
8.13263e-05
5.90686e-07
8.15673e-05
4.27049e-08
8.18053e-05
-3.36563e-07
1.40449e-06
3.92674e-05
3.96266e-05
3.96391e-05
3.94995e-05
4.01752e-05
3.98218e-05
4.04124e-05
4.04551e-05
4.01186e-05
)
;

boundaryField
{
    top
    {
        type            calculated;
        value           uniform 0;
    }
    bottom
    {
        type            symmetryPlane;
        value           uniform 0;
    }
    inlet
    {
        type            calculated;
        value           nonuniform List<scalar> 5(-0.000197428 -0.00015708 -0.000117582 -7.89918e-05 -4.05513e-05);
    }
    outlet
    {
        type            calculated;
        value           nonuniform List<scalar> 5(0.000186586 0.000158977 0.000122532 8.20158e-05 4.1523e-05);
    }
    frontAndBack
    {
        type            empty;
        value           nonuniform 0();
    }
}


// ************************************************************************* //
