/*--------------------------------*- C++ -*----------------------------------*\
| =========                 |                                                 |
| \\      /  F ield         | OpenFOAM: The Open Source CFD Toolbox           |
|  \\    /   O peration     | Version:  5.0                                   |
|   \\  /    A nd           | Web:      www.OpenFOAM.org                      |
|    \\/     M anipulation  |                                                 |
\*---------------------------------------------------------------------------*/
FoamFile
{
    version     2.0;
    format      ascii;
    class       volScalarField;
    location    "3.6";
    object      viscoDPD;
}
// * * * * * * * * * * * * * * * * * * * * * * * * * * * * * * * * * * * * * //

dimensions      [0 2 -1 0 0 0 0];

internalField   nonuniform List<scalar> 
50
(
0.0201712
0.0201698
0.020175
0.0201692
0.0203381
0.0204639
0.0380646
0.0390139
0.0393032
0.0398238
0.0605138
0.0605093
0.060525
0.0605001
0.0608078
0.0606183
0.0770965
0.0783463
0.0787121
0.0793248
0.100856
0.100848
0.100875
0.10082
0.101044
0.100743
0.0983519
0.0984554
0.0985523
0.0986283
0.141199
0.141187
0.141225
0.141135
0.141292
0.140905
0.138408
0.13799
0.137997
0.137888
0.181542
0.181524
0.181579
0.181445
0.181612
0.181176
0.178303
0.177439
0.17742
0.177173
)
;

boundaryField
{
    top
    {
        type            zeroGradient;
    }
    bottom
    {
        type            symmetryPlane;
    }
    inlet
    {
        type            zeroGradient;
    }
    outlet
    {
        type            zeroGradient;
    }
    frontAndBack
    {
        type            empty;
    }
}


// ************************************************************************* //
