/*--------------------------------*- C++ -*----------------------------------*\
| =========                 |                                                 |
| \\      /  F ield         | OpenFOAM: The Open Source CFD Toolbox           |
|  \\    /   O peration     | Version:  5.0                                   |
|   \\  /    A nd           | Web:      www.OpenFOAM.org                      |
|    \\/     M anipulation  |                                                 |
\*---------------------------------------------------------------------------*/
FoamFile
{
    version     2.0;
    format      ascii;
    class       surfaceScalarField;
    location    "147";
    object      phi;
}
// * * * * * * * * * * * * * * * * * * * * * * * * * * * * * * * * * * * * * //

dimensions      [0 3 -1 0 0 0 0];

internalField   nonuniform List<scalar> 
3052
(
4.34683e-21
-1.45627e-20
-3.99208e-21
1.85782e-21
1.36579e-19
-1.4801e-19
2.4722e-19
-1.20262e-19
3.39609e-19
-9.8661e-20
4.7578e-19
-1.42256e-19
6.19501e-19
-1.48639e-19
7.60487e-19
-1.45556e-19
9.07282e-19
-1.52092e-19
1.05864e-18
-1.56463e-19
1.20874e-18
-1.54902e-19
1.35615e-18
-1.51951e-19
1.49972e-18
-1.47924e-19
1.63771e-18
-1.42099e-19
1.76828e-18
-1.34906e-19
1.89052e-18
-1.26455e-19
2.00262e-18
-1.1635e-19
2.10454e-18
-1.05881e-19
2.19471e-18
-9.41558e-20
2.27316e-18
-8.20239e-20
2.33795e-18
-6.82566e-20
2.39051e-18
-5.53244e-20
2.42996e-18
-4.18993e-20
2.45748e-18
-2.91065e-20
2.47098e-18
-1.49132e-20
2.47256e-18
-2.40867e-21
2.46e-18
1.17397e-20
2.43536e-18
2.44073e-20
2.39717e-18
3.78841e-20
2.34993e-18
4.74845e-20
2.29168e-18
5.90536e-20
2.22553e-18
6.84506e-20
2.14936e-18
7.93753e-20
2.06663e-18
8.69768e-20
1.97559e-18
9.5543e-20
1.87972e-18
1.00933e-19
1.77666e-18
1.07941e-19
1.67011e-18
1.11741e-19
1.5586e-18
1.16509e-19
1.44443e-18
1.19015e-19
1.32694e-18
1.21521e-19
1.20925e-18
1.21555e-19
1.09021e-18
1.22465e-19
9.72328e-19
1.21426e-19
8.55487e-19
1.20368e-19
7.41811e-19
1.17445e-19
6.31383e-19
1.14326e-19
5.25819e-19
1.09524e-19
4.2544e-19
1.04139e-19
3.32765e-19
9.67673e-20
2.46248e-19
8.95288e-20
1.70461e-19
7.85954e-20
1.10357e-19
6.55566e-20
4.64695e-20
6.35298e-20
1.52676e-20
3.20235e-20
1.52648e-20
7.39154e-20
-9.32388e-20
1.26008e-19
-6.22319e-20
1.22668e-19
-1.78892e-19
1.92377e-19
-2.06004e-19
3.22391e-19
-2.48258e-19
4.34974e-19
-2.68903e-19
5.55147e-19
-2.80122e-19
6.8964e-19
-2.92711e-19
8.265e-19
-3.01288e-19
9.62675e-19
-3.0502e-19
1.1001e-18
-3.03827e-19
1.23649e-18
-2.98984e-19
1.36907e-18
-2.90616e-19
1.49576e-18
-2.79616e-19
1.61615e-18
-2.65571e-19
1.72835e-18
-2.49113e-19
1.83231e-18
-2.30004e-19
1.92605e-18
-2.09341e-19
2.00975e-18
-1.86348e-19
2.08176e-18
-1.62354e-19
2.14331e-18
-1.36487e-19
2.1926e-18
-1.10825e-19
2.23108e-18
-8.44634e-20
2.25694e-18
-5.87666e-20
2.27154e-18
-3.16635e-20
2.27235e-18
-5.38137e-21
2.26181e-18
2.1595e-20
2.23887e-18
4.6419e-20
2.20645e-18
7.0875e-20
2.16246e-18
9.30065e-20
2.11033e-18
1.1587e-19
2.04909e-18
1.36309e-19
1.98156e-18
1.56489e-19
1.90558e-18
1.73464e-19
1.82357e-18
1.89632e-19
1.73404e-18
2.02115e-19
1.64063e-18
2.1403e-19
1.54167e-18
2.22717e-19
1.43974e-18
2.30319e-19
1.33402e-18
2.34921e-19
1.22657e-18
2.38821e-19
1.11622e-18
2.40091e-19
1.00631e-18
2.40783e-19
8.9661e-19
2.3923e-19
7.88909e-19
2.36796e-19
6.83187e-19
2.32112e-19
5.81057e-19
2.25715e-19
4.83032e-19
2.16644e-19
3.91086e-19
2.06151e-19
3.03824e-19
1.91618e-19
2.25459e-19
1.7724e-19
1.5569e-19
1.58918e-19
9.02001e-20
1.30197e-19
5.47347e-20
1.07482e-19
1.57741e-20
6.7666e-20
3.08531e-20
-2.30032e-20
-7.1412e-20
4.66883e-20
-1.54811e-19
1.07105e-19
-2.47338e-19
1.88725e-19
-3.02201e-19
2.76283e-19
-3.42241e-19
3.81334e-19
-3.77038e-19
4.95146e-19
-3.96805e-19
6.15797e-19
-4.15586e-19
7.4027e-19
-4.28323e-19
8.66403e-19
-4.32676e-19
9.92321e-19
-4.30765e-19
1.11605e-18
-4.24058e-19
1.23663e-18
-4.13185e-19
1.35287e-18
-3.97338e-19
1.46288e-18
-3.7734e-19
1.56596e-18
-3.53455e-19
1.66118e-18
-3.26437e-19
1.74762e-18
-2.96177e-19
1.82449e-18
-2.63769e-19
1.89154e-18
-2.29271e-19
1.94836e-18
-1.93522e-19
1.99467e-18
-1.56604e-19
2.02976e-18
-1.19629e-19
2.05367e-18
-8.20588e-20
2.06656e-18
-4.43887e-20
2.06859e-18
-6.57656e-21
2.06008e-18
3.03358e-20
2.04125e-18
6.62251e-20
2.01238e-18
1.00293e-19
1.97405e-18
1.32628e-19
1.92741e-18
1.63567e-19
1.8726e-18
1.93056e-19
1.81017e-18
2.20206e-19
1.74075e-18
2.44507e-19
1.66539e-18
2.65967e-19
1.58436e-18
2.84858e-19
1.49846e-18
3.00988e-19
1.40824e-18
3.14295e-19
1.31453e-18
3.24863e-19
1.2177e-18
3.32798e-19
1.11875e-18
3.37831e-19
1.01865e-18
3.40799e-19
9.18067e-19
3.41635e-19
8.17559e-19
3.40295e-19
7.18414e-19
3.36307e-19
6.2141e-19
3.29818e-19
5.27468e-19
3.20572e-19
4.37389e-19
3.08191e-19
3.52291e-19
2.92521e-19
2.73863e-19
2.7444e-19
2.01148e-19
2.49705e-19
1.36599e-19
2.20968e-19
8.57368e-20
1.91469e-19
3.65112e-20
1.46958e-19
7.20187e-21
9.77756e-20
3.80571e-20
-1.23339e-20
-6.1803e-20
4.49553e-20
-2.15356e-19
8.55891e-20
-2.9177e-19
1.53897e-19
-3.7094e-19
2.41635e-19
-4.27978e-19
3.33474e-19
-4.64748e-19
4.35817e-19
-4.94991e-19
5.45168e-19
-5.20684e-19
6.57646e-19
-5.35044e-19
7.71176e-19
-5.40094e-19
8.84931e-19
-5.39298e-19
9.9725e-19
-5.31805e-19
1.10638e-18
-5.17673e-19
1.21131e-18
-4.97719e-19
1.31111e-18
-4.7241e-19
1.40483e-18
-4.42287e-19
1.49148e-18
-4.07928e-19
1.57032e-18
-3.69999e-19
1.64078e-18
-3.29144e-19
1.70218e-18
-2.86005e-19
1.75424e-18
-2.41102e-19
1.79634e-18
-1.9517e-19
1.82842e-18
-1.4861e-19
1.85031e-18
-1.01572e-19
1.8625e-18
-5.4346e-20
1.86492e-18
-7.39204e-21
1.85829e-18
3.86202e-20
1.84236e-18
8.30071e-20
1.8179e-18
1.25346e-19
1.78437e-18
1.65707e-19
1.74275e-18
2.03733e-19
1.69301e-18
2.39194e-19
1.63658e-18
2.71847e-19
1.57331e-18
3.01758e-19
1.50463e-18
3.28602e-19
1.4305e-18
3.52449e-19
1.35227e-18
3.7287e-19
1.26997e-18
3.90121e-19
1.18474e-18
4.03938e-19
1.09702e-18
4.14544e-19
1.00771e-18
4.22109e-19
9.17041e-19
4.26704e-19
8.26059e-19
4.28047e-19
7.35224e-19
4.26338e-19
6.45399e-19
4.21463e-19
5.57236e-19
4.13362e-19
4.71803e-19
4.01528e-19
3.90298e-19
3.86291e-19
3.13992e-19
3.67235e-19
2.41855e-19
3.41874e-19
1.76874e-19
3.13255e-19
1.20062e-19
2.81238e-19
6.67279e-20
2.31856e-19
3.6793e-20
1.83575e-19
1.28438e-20
1.18432e-19
5.07628e-20
2.37338e-20
-8.6277e-20
3.34932e-20
-2.19356e-19
8.02196e-20
-3.35241e-19
1.36517e-19
-4.22875e-19
2.08384e-19
-4.94384e-19
2.89533e-19
-5.43164e-19
3.79967e-19
-5.83213e-19
4.76294e-19
-6.13231e-19
5.76072e-19
-6.30136e-19
6.77727e-19
-6.37616e-19
7.79004e-19
-6.37007e-19
8.78826e-19
-6.28216e-19
9.76308e-19
-6.1163e-19
1.07024e-18
-5.8805e-19
1.15962e-18
-5.58011e-19
1.2437e-18
-5.22481e-19
1.32147e-18
-4.81882e-19
1.39231e-18
-4.37191e-19
1.45563e-18
-3.88996e-19
1.51108e-18
-3.38155e-19
1.55798e-18
-2.85234e-19
1.59611e-18
-2.30959e-19
1.62502e-18
-1.75667e-19
1.64495e-18
-1.19989e-19
1.65595e-18
-6.41535e-20
1.6586e-18
-8.9151e-21
1.65288e-18
4.51409e-20
1.63929e-18
9.73193e-20
1.61775e-18
1.47229e-19
1.58866e-18
1.94448e-19
1.55187e-18
2.38773e-19
1.50792e-18
2.80233e-19
1.45704e-18
3.18576e-19
1.40053e-18
3.53679e-19
1.33881e-18
3.85314e-19
1.27271e-18
4.13483e-19
1.20243e-18
4.37942e-19
1.1289e-18
4.58662e-19
1.05238e-18
4.75775e-19
9.73836e-19
4.89145e-19
8.93897e-19
4.98719e-19
8.13278e-19
5.04454e-19
7.32011e-19
5.06574e-19
6.50911e-19
5.04809e-19
5.70518e-19
4.99183e-19
4.91774e-19
4.89543e-19
4.15612e-19
4.75805e-19
3.43056e-19
4.57277e-19
2.7461e-19
4.33866e-19
2.1201e-19
4.06342e-19
1.54191e-19
3.70196e-19
1.02503e-19
3.25338e-19
6.33448e-20
2.80369e-19
2.3582e-20
2.15116e-19
1.08771e-21
1.41946e-19
5.1962e-20
1.00799e-20
-9.33979e-20
3.23035e-20
-2.35093e-19
6.91665e-20
-3.65432e-19
1.21115e-19
-4.69548e-19
1.80293e-19
-5.52698e-19
2.49707e-19
-6.13465e-19
3.27464e-19
-6.61306e-19
4.10331e-19
-6.95464e-19
4.96637e-19
-7.15862e-19
5.85074e-19
-7.25694e-19
6.73772e-19
-7.25501e-19
7.61585e-19
-7.15719e-19
8.47392e-19
-6.96951e-19
9.30128e-19
-6.70074e-19
1.00905e-18
-6.36081e-19
1.08311e-18
-5.95757e-19
1.15167e-18
-5.49802e-19
1.21405e-18
-4.99079e-19
1.26991e-18
-4.44377e-19
1.31861e-18
-3.86518e-19
1.35998e-18
-3.26265e-19
1.39357e-18
-2.64287e-19
1.41932e-18
-2.01216e-19
1.43704e-18
-1.37666e-19
1.4471e-18
-7.41216e-20
1.44951e-18
-1.12827e-20
1.4447e-18
5.01945e-20
1.4327e-18
1.09706e-19
1.4138e-18
1.66616e-19
1.38801e-18
2.20525e-19
1.35568e-18
2.71148e-19
1.31706e-18
3.18312e-19
1.27288e-18
3.61994e-19
1.22352e-18
4.01982e-19
1.16952e-18
4.38127e-19
1.11136e-18
4.70269e-19
1.04971e-18
4.98385e-19
9.84912e-19
5.22316e-19
9.17757e-19
5.42103e-19
8.48743e-19
5.57714e-19
7.78495e-19
5.69034e-19
7.0731e-19
5.76031e-19
6.35874e-19
5.78671e-19
5.64595e-19
5.76791e-19
4.9422e-19
5.70395e-19
4.2545e-19
5.59343e-19
3.59093e-19
5.43169e-19
2.95898e-19
5.22006e-19
2.37217e-19
4.95628e-19
1.82592e-19
4.61147e-19
1.33137e-19
4.20639e-19
9.01513e-20
3.75152e-19
4.93965e-20
3.12209e-19
2.64531e-20
2.42584e-19
9.80864e-21
1.58387e-19
6.17449e-20
3.25866e-21
-9.4775e-20
2.94402e-20
-2.56093e-19
6.19203e-20
-3.94001e-19
1.03592e-19
-5.1014e-19
1.52107e-19
-6.01934e-19
2.10044e-19
-6.72631e-19
2.75386e-19
-7.27293e-19
3.45572e-19
-7.66111e-19
4.19313e-19
-7.90169e-19
4.94882e-19
-8.01952e-19
5.70917e-19
-8.02226e-19
6.46349e-19
-7.91664e-19
7.20199e-19
-7.71113e-19
7.91644e-19
-7.41646e-19
8.59764e-19
-7.04298e-19
9.23734e-19
-6.59835e-19
9.82914e-19
-6.09186e-19
1.03681e-18
-5.53196e-19
1.08494e-18
-4.92831e-19
1.12702e-18
-4.28829e-19
1.16271e-18
-3.62126e-19
1.19179e-18
-2.93472e-19
1.21407e-18
-2.23646e-19
1.22951e-18
-1.53216e-19
1.23818e-18
-8.29724e-20
1.24033e-18
-1.34787e-20
1.23613e-18
5.44432e-20
1.22585e-18
1.20219e-19
1.20953e-18
1.83256e-19
1.18739e-18
2.43139e-19
1.1595e-18
2.99395e-19
1.12633e-18
3.51902e-19
1.08818e-18
4.00427e-19
1.04553e-18
4.44789e-19
9.98774e-19
4.84857e-19
9.48531e-19
5.20569e-19
8.95204e-19
5.51746e-19
8.39294e-19
5.7835e-19
7.81307e-19
6.00297e-19
7.21823e-19
6.17641e-19
6.61261e-19
6.30242e-19
6.00106e-19
6.38073e-19
5.38752e-19
6.40942e-19
4.77684e-19
6.38829e-19
4.17476e-19
6.31623e-19
3.58773e-19
6.19167e-19
3.02252e-19
6.01223e-19
2.48794e-19
5.7733e-19
1.98703e-19
5.46793e-19
1.52898e-19
5.10236e-19
1.11597e-19
4.64598e-19
7.44331e-20
4.07305e-19
4.59204e-20
3.45311e-19
1.77677e-20
2.6647e-19
2.94309e-21
1.72816e-19
6.46584e-20
6.79917e-21
-1.006e-19
2.38317e-20
-2.72183e-19
4.96262e-20
-4.1923e-19
8.24478e-20
-5.4294e-19
1.2268e-19
-6.42755e-19
1.71041e-19
-7.21304e-19
2.24959e-19
-7.81382e-19
2.82845e-19
-8.24407e-19
3.44085e-19
-8.51811e-19
4.07012e-19
-8.65338e-19
4.70498e-19
-8.66083e-19
5.33509e-19
-8.54957e-19
5.95348e-19
-8.33072e-19
6.5521e-19
-8.01527e-19
7.12302e-19
-7.6135e-19
7.65983e-19
-7.13464e-19
8.15746e-19
-6.58857e-19
8.61054e-19
-5.98495e-19
9.01556e-19
-5.33294e-19
9.36942e-19
-4.64159e-19
9.66948e-19
-3.92069e-19
9.9136e-19
-3.17811e-19
1.01004e-18
-2.42233e-19
1.02294e-18
-1.66117e-19
1.03017e-18
-9.02295e-20
1.03188e-18
-1.52755e-20
1.02827e-18
5.80565e-20
1.01943e-18
1.2909e-19
1.0056e-18
1.97288e-19
9.8683e-19
2.62118e-19
9.63348e-19
3.23199e-19
9.35315e-19
3.80153e-19
9.03098e-19
4.32777e-19
8.67062e-19
4.8084e-19
8.27688e-19
5.24262e-19
7.85366e-19
5.62861e-19
7.40543e-19
5.96542e-19
6.93585e-19
6.2525e-19
6.44928e-19
6.4894e-19
5.95024e-19
6.67564e-19
5.44332e-19
6.81067e-19
4.93187e-19
6.89332e-19
4.41961e-19
6.92286e-19
3.91054e-19
6.89826e-19
3.40956e-19
6.81847e-19
2.92314e-19
6.68129e-19
2.45803e-19
6.48323e-19
2.01857e-19
6.22159e-19
1.61135e-19
5.89287e-19
1.24085e-19
5.47771e-19
9.05557e-20
4.977e-19
6.08584e-20
4.39977e-19
3.32136e-20
3.66693e-19
1.68044e-20
2.82117e-19
5.38061e-21
1.83117e-19
6.99756e-20
6.43478e-21
-1.07295e-19
1.77857e-20
-2.83074e-19
3.75534e-20
-4.38597e-19
6.34264e-20
-5.68738e-19
9.60339e-20
-6.75257e-19
1.34285e-19
-7.59646e-19
1.76758e-19
-8.2426e-19
2.22774e-19
-8.70757e-19
2.71395e-19
-9.00849e-19
3.21604e-19
-9.15947e-19
3.72526e-19
-9.17327e-19
4.23315e-19
-9.05926e-19
4.73228e-19
-8.83084e-19
5.21517e-19
-8.4992e-19
5.67641e-19
-8.07512e-19
6.1107e-19
-7.56878e-19
6.51299e-19
-6.99067e-19
6.87954e-19
-6.35105e-19
7.207e-19
-5.66005e-19
7.49292e-19
-4.92739e-19
7.73479e-19
-4.16235e-19
7.93119e-19
-3.37443e-19
8.08057e-19
-2.57259e-19
8.18326e-19
-1.76538e-19
8.23932e-19
-9.60522e-20
8.25065e-19
-1.65734e-20
8.21838e-19
6.11966e-20
8.14427e-19
1.36604e-19
8.02891e-19
2.08988e-19
7.87398e-19
2.77866e-19
7.68082e-19
3.42718e-19
7.45146e-19
4.03249e-19
7.18815e-19
4.59155e-19
6.89477e-19
5.10231e-19
6.57466e-19
5.56283e-19
6.23118e-19
5.97215e-19
5.8673e-19
6.32897e-19
5.48713e-19
6.63264e-19
5.09387e-19
6.88268e-19
4.69135e-19
7.07874e-19
4.28259e-19
7.21972e-19
3.87119e-19
7.30535e-19
3.46012e-19
7.33446e-19
3.05293e-19
7.30576e-19
2.654e-19
7.21823e-19
2.26872e-19
7.06989e-19
1.9025e-19
6.85708e-19
1.56056e-19
6.5752e-19
1.24351e-19
6.21646e-19
9.55883e-20
5.77897e-19
7.01508e-20
5.25023e-19
4.68185e-20
4.59918e-19
2.77794e-20
3.85184e-19
1.09387e-20
2.96837e-19
1.06236e-21
1.91417e-19
7.0982e-20
2.96033e-21
-1.09885e-19
1.22547e-20
-2.91618e-19
2.72062e-20
-4.52775e-19
4.70211e-20
-5.87946e-19
7.11102e-20
-6.99216e-19
9.89717e-20
-7.87826e-19
1.30378e-19
-8.56064e-19
1.64726e-19
-9.05574e-19
2.01217e-19
-9.37838e-19
2.39199e-19
-9.54321e-19
2.77797e-19
-9.56217e-19
3.16414e-19
-9.4475e-19
3.54446e-19
-9.21346e-19
3.9135e-19
-8.87005e-19
4.26577e-19
-8.42923e-19
4.59765e-19
-7.90204e-19
4.90496e-19
-7.29922e-19
5.18514e-19
-6.63224e-19
5.43496e-19
-5.91091e-19
5.65254e-19
-5.14603e-19
5.83607e-19
-4.34712e-19
5.98431e-19
-3.52494e-19
6.09617e-19
-2.68734e-19
6.17122e-19
-1.84426e-19
6.21028e-19
-1.00341e-19
6.21481e-19
-1.73206e-20
6.18635e-19
6.39722e-20
6.12595e-19
1.42782e-19
6.03411e-19
2.18474e-19
5.91151e-19
2.90439e-19
5.75902e-19
3.58219e-19
5.57859e-19
4.21423e-19
5.37333e-19
4.79802e-19
5.14533e-19
5.33121e-19
4.89716e-19
5.81201e-19
4.6312e-19
6.23874e-19
4.35082e-19
6.61036e-19
4.05857e-19
6.92626e-19
3.75746e-19
7.18575e-19
3.44989e-19
7.38811e-19
3.1389e-19
7.53302e-19
2.82701e-19
7.61987e-19
2.51682e-19
7.64737e-19
2.21122e-19
7.61451e-19
1.91374e-19
7.52014e-19
1.62884e-19
7.36123e-19
1.36158e-19
7.13459e-19
1.11317e-19
6.83536e-19
8.85938e-20
6.4597e-19
6.82974e-20
5.99543e-19
5.01321e-20
5.42934e-19
3.38473e-20
4.77221e-19
1.89443e-20
3.98271e-19
8.09057e-21
3.04214e-19
2.55688e-21
1.97045e-19
7.35275e-20
1.51564e-21
-1.11188e-19
8.13171e-21
-2.97087e-19
1.79867e-20
-4.61626e-19
3.09387e-20
-6.00261e-19
4.64791e-20
-7.14743e-19
6.48431e-20
-8.06451e-19
8.58662e-20
-8.7742e-19
1.09056e-19
-9.29112e-19
1.3387e-19
-9.62935e-19
1.59853e-19
-9.80568e-19
1.86451e-19
-9.82978e-19
2.1316e-19
-9.71625e-19
2.39506e-19
-9.47848e-19
2.65128e-19
-9.12782e-19
2.89657e-19
-8.67573e-19
3.12733e-19
-8.13401e-19
3.34098e-19
-7.51392e-19
3.53501e-19
-6.82737e-19
3.70785e-19
-6.08469e-19
3.8578e-19
-5.29684e-19
3.98343e-19
-4.47437e-19
4.08336e-19
-3.62722e-19
4.15741e-19
-2.76554e-19
4.20573e-19
-1.89764e-19
4.22888e-19
-1.03167e-19
4.22767e-19
-1.74911e-20
4.203e-19
6.6466e-20
4.15497e-19
1.47858e-19
4.08413e-19
2.25874e-19
3.992e-19
2.99927e-19
3.87939e-19
3.69649e-19
3.74792e-19
4.347e-19
3.59909e-19
4.94786e-19
3.43471e-19
5.49639e-19
3.25664e-19
5.99044e-19
3.06734e-19
6.42859e-19
2.86884e-19
6.80977e-19
2.66332e-19
7.13321e-19
2.45253e-19
7.39798e-19
2.23868e-19
7.60376e-19
2.0239e-19
7.74985e-19
1.81009e-19
7.83597e-19
1.59945e-19
7.86074e-19
1.39398e-19
7.82333e-19
1.19598e-19
7.72202e-19
1.00916e-19
7.5542e-19
8.3672e-20
7.31656e-19
6.81268e-20
7.00487e-19
5.40603e-20
6.60988e-19
4.15945e-20
6.12738e-19
3.12112e-20
5.55651e-19
2.10544e-20
4.86282e-19
1.13428e-20
4.04134e-19
5.48183e-21
3.11209e-19
1.12968e-21
1.99084e-19
7.4545e-20
5.90817e-22
-1.11363e-19
4.0137e-21
-2.99665e-19
8.96131e-21
-4.6561e-19
1.53017e-20
-6.06081e-19
2.29878e-20
-7.22305e-19
3.23451e-20
-8.15935e-19
4.33733e-20
-8.88619e-19
5.58567e-20
-9.41732e-19
6.95523e-20
-9.76767e-19
8.38692e-20
-9.9496e-19
9.85955e-20
-9.97811e-19
1.13707e-19
-9.86845e-19
1.28719e-19
-9.62943e-19
1.43327e-19
-9.27464e-19
1.57342e-19
-8.8164e-19
1.70512e-19
-8.26642e-19
1.82683e-19
-7.63671e-19
1.9366e-19
-6.93817e-19
2.03376e-19
-6.18264e-19
2.11683e-19
-5.3808e-19
2.18533e-19
-4.54435e-19
2.2381e-19
-3.68284e-19
2.27567e-19
-2.80627e-19
2.2975e-19
-1.92253e-19
2.30459e-19
-1.04e-19
2.29691e-19
-1.66585e-20
2.27511e-19
6.87995e-20
2.23905e-19
1.51558e-19
2.18964e-19
2.30871e-19
2.12714e-19
3.06176e-19
2.0532e-19
3.77059e-19
1.96892e-19
4.43161e-19
1.87527e-19
5.04151e-19
1.77344e-19
5.59806e-19
1.6645e-19
6.09926e-19
1.55029e-19
6.54296e-19
1.43196e-19
6.9286e-19
1.31105e-19
7.25475e-19
1.1888e-19
7.52106e-19
1.06655e-19
7.72698e-19
9.45605e-20
7.87193e-19
8.28294e-20
7.95485e-19
7.15213e-20
7.97593e-19
6.06422e-20
7.93412e-19
5.04973e-20
7.82638e-19
4.13184e-20
7.65111e-19
3.33941e-20
7.4047e-19
2.65987e-20
7.08086e-19
2.09225e-20
6.67798e-19
1.66853e-20
6.18909e-19
1.25659e-20
5.58853e-19
9.03861e-21
4.8906e-19
5.68929e-21
4.0886e-19
1.39514e-22
3.1045e-19
-1.35733e-21
2.00636e-19
7.31621e-20
-1.69732e-22
-1.1111e-19
1.59791e-22
-2.98945e-19
3.92782e-22
-4.64934e-19
5.18518e-22
-6.05608e-19
8.13836e-22
-7.22375e-19
1.56053e-21
-8.16714e-19
2.96008e-21
-8.901e-19
5.04746e-21
-9.43903e-19
7.83174e-21
-9.79615e-19
1.10818e-20
-9.98311e-19
1.47201e-20
-1.00156e-18
1.84912e-20
-9.90736e-19
2.23459e-20
-9.66923e-19
2.62658e-20
-9.31479e-19
3.00607e-20
-8.85559e-19
3.35932e-20
-8.30352e-19
3.67836e-20
-7.67061e-19
3.95735e-20
-6.968e-19
4.1896e-20
-6.20755e-19
4.37044e-20
-5.40066e-19
4.49192e-20
-4.55818e-19
4.56066e-20
-3.68999e-19
4.57564e-20
-2.80605e-19
4.54775e-20
-1.91541e-19
4.47225e-20
-1.02691e-19
4.34132e-20
-1.49438e-20
4.14332e-20
7.08102e-20
3.88549e-20
1.53818e-19
3.58293e-20
2.33407e-19
3.25246e-20
3.09053e-19
2.90185e-20
3.803e-19
2.52757e-20
4.46741e-19
2.13073e-20
5.08028e-19
1.71827e-20
5.63873e-19
1.3022e-20
6.14072e-19
8.90038e-21
6.58452e-19
4.88601e-21
6.9694e-19
1.02504e-21
7.29413e-19
-2.58567e-21
7.5581e-19
-5.86414e-21
7.76079e-19
-8.78021e-21
7.90256e-19
-1.1282e-20
7.98206e-19
-1.33152e-20
7.99849e-19
-1.47453e-20
7.95098e-19
-1.55331e-20
7.83748e-19
-1.55264e-20
7.65609e-19
-1.46362e-20
7.40315e-19
-1.28078e-20
7.07559e-19
-1.03316e-20
6.66329e-19
-7.66543e-21
6.15951e-19
-4.00695e-21
5.57753e-19
-2.20701e-21
4.87653e-19
-3.17127e-21
4.02768e-19
6.68216e-22
3.09383e-19
7.7702e-22
1.97156e-19
7.37599e-20
-1.19258e-21
-1.0949e-19
-3.71476e-21
-2.957e-19
-7.72202e-21
-4.60033e-19
-1.32433e-20
-5.99279e-19
-2.0099e-20
-7.15258e-19
-2.7625e-20
-8.09168e-19
-3.54515e-20
-8.82344e-19
-4.32539e-20
-9.36175e-19
-5.10442e-20
-9.71914e-19
-5.86431e-20
-9.90812e-19
-6.59273e-20
-9.94409e-19
-7.29171e-20
-9.83893e-19
-7.95296e-20
-9.60468e-19
-8.58583e-20
-9.25319e-19
-9.19252e-20
-8.79713e-19
-9.76824e-20
-8.24835e-19
-1.03153e-19
-7.61839e-19
-1.08309e-19
-6.91884e-19
-1.13178e-19
-6.16142e-19
-1.17708e-19
-5.35723e-19
-1.21889e-19
-4.51652e-19
-1.25614e-19
-3.65028e-19
-1.28794e-19
-2.76867e-19
-1.31369e-19
-1.8812e-19
-1.33559e-19
-9.97401e-20
-1.35481e-19
-1.26576e-20
-1.37253e-19
7.23563e-20
-1.38736e-19
1.54664e-19
-1.39797e-19
2.33685e-19
-1.40233e-19
3.08906e-19
-1.40053e-19
3.79756e-19
-1.39279e-19
4.45792e-19
-1.37981e-19
5.0662e-19
-1.36162e-19
5.62007e-19
-1.33772e-19
6.11693e-19
-1.30827e-19
6.55591e-19
-1.27299e-19
6.93505e-19
-1.23193e-19
7.25432e-19
-1.18517e-19
7.51243e-19
-1.13248e-19
7.7097e-19
-1.07311e-19
7.84541e-19
-1.00748e-19
7.91908e-19
-9.36631e-20
7.93048e-19
-8.60873e-20
7.87812e-19
-7.8026e-20
7.7601e-19
-6.93241e-20
7.57454e-19
-5.98977e-20
7.31837e-19
-5.00702e-20
6.98456e-19
-4.01635e-20
6.57324e-19
-2.99128e-20
6.08311e-19
-2.09526e-20
5.47693e-19
-1.3022e-20
4.77299e-19
-5.63066e-21
3.99412e-19
-6.40634e-21
3.01394e-19
-3.78709e-21
1.94632e-19
6.99585e-20
-1.97187e-21
-1.07467e-19
-6.93422e-21
-2.89623e-19
-1.49831e-20
-4.50669e-19
-2.62882e-20
-5.87308e-19
-3.99194e-20
-7.01293e-19
-5.53681e-20
-7.93683e-19
-7.20409e-20
-8.65726e-19
-8.94332e-20
-9.18843e-19
-1.07219e-19
-9.54176e-19
-1.24966e-19
-9.73142e-19
-1.42501e-19
-9.7696e-19
-1.59795e-19
-9.66713e-19
-1.7663e-19
-9.43741e-19
-1.92882e-19
-9.09235e-19
-2.084e-19
-8.64365e-19
-2.23077e-19
-8.10335e-19
-2.36818e-19
-7.48275e-19
-2.49571e-19
-6.79349e-19
-2.61234e-19
-6.04649e-19
-2.71781e-19
-5.25307e-19
-2.81061e-19
-4.42395e-19
-2.88997e-19
-3.56968e-19
-2.9545e-19
-2.69993e-19
-3.00549e-19
-1.82573e-19
-3.043e-19
-9.56154e-20
-3.06893e-19
-1.00375e-20
-3.08306e-19
7.35091e-20
-3.08525e-19
1.54392e-19
-3.07359e-19
2.32138e-19
-3.04845e-19
3.06091e-19
-3.00966e-19
3.75733e-19
-2.95842e-19
4.4053e-19
-2.89459e-19
5.00186e-19
-2.81921e-19
5.54438e-19
-2.73223e-19
6.03075e-19
-2.63475e-19
6.45905e-19
-2.52675e-19
6.82822e-19
-2.40917e-19
7.13751e-19
-2.28202e-19
7.38683e-19
-2.14641e-19
7.5757e-19
-2.00246e-19
7.70364e-19
-1.8518e-19
7.77064e-19
-1.6952e-19
7.77628e-19
-1.53405e-19
7.71884e-19
-1.36832e-19
7.59726e-19
-1.19833e-19
7.40902e-19
-1.0249e-19
7.15137e-19
-8.49724e-20
6.8227e-19
-6.76997e-20
6.41229e-19
-5.13403e-20
5.91094e-19
-3.51965e-20
5.34235e-19
-2.26396e-20
4.66503e-19
-1.55475e-20
3.82582e-19
-3.64042e-21
2.94186e-19
1.35001e-22
1.86878e-19
6.99005e-20
-3.55735e-21
-1.03414e-19
-1.02849e-20
-2.81308e-19
-2.22877e-20
-4.37643e-19
-3.85458e-20
-5.70104e-19
-5.86761e-20
-6.80781e-19
-8.16875e-20
-7.70625e-19
-1.06695e-19
-8.40762e-19
-1.33029e-19
-8.92532e-19
-1.60168e-19
-9.27075e-19
-1.87685e-19
-9.45654e-19
-2.15248e-19
-9.4944e-19
-2.42461e-19
-9.39543e-19
-2.69073e-19
-9.17223e-19
-2.94774e-19
-8.83637e-19
-3.19315e-19
-8.39931e-19
-3.42491e-19
-7.87252e-19
-3.64141e-19
-7.26737e-19
-3.84079e-19
-6.59508e-19
-4.02188e-19
-5.86673e-19
-4.18319e-19
-5.0931e-19
-4.32404e-19
-4.28442e-19
-4.44326e-19
-3.45096e-19
-4.54097e-19
-2.60317e-19
-4.61644e-19
-1.75123e-19
-4.66989e-19
-9.04241e-20
-4.70122e-19
-7.04505e-21
-4.71068e-19
7.43488e-20
-4.69803e-19
1.53125e-19
-4.66404e-19
2.28734e-19
-4.60876e-19
3.0057e-19
-4.53364e-19
3.68174e-19
-4.43917e-19
4.31079e-19
-4.32666e-19
4.88955e-19
-4.19606e-19
5.41468e-19
-4.04905e-19
5.88451e-19
-3.88581e-19
6.29685e-19
-3.70833e-19
6.65179e-19
-3.51703e-19
6.94774e-19
-3.31362e-19
7.18498e-19
-3.09901e-19
7.36283e-19
-2.87503e-19
7.48155e-19
-2.64301e-19
7.54057e-19
-2.40501e-19
7.53993e-19
-2.16252e-19
7.47778e-19
-1.91708e-19
7.35364e-19
-1.66944e-19
7.16553e-19
-1.41997e-19
6.91084e-19
-1.17404e-19
6.5821e-19
-9.36988e-20
6.18235e-19
-7.05488e-20
5.71135e-19
-5.02867e-20
5.12436e-19
-3.23899e-20
4.44935e-19
-1.56558e-20
3.7253e-19
-1.23862e-20
2.80016e-19
-5.61981e-21
1.80882e-19
6.4283e-20
-3.26669e-21
-9.96349e-20
-1.31866e-20
-2.69989e-19
-2.87075e-20
-4.2026e-19
-5.02518e-20
-5.47624e-19
-7.6594e-20
-6.54053e-19
-1.06667e-19
-7.40477e-19
-1.39565e-19
-8.07902e-19
-1.74453e-19
-8.577e-19
-2.10591e-19
-8.90961e-19
-2.47415e-19
-9.08843e-19
-2.84407e-19
-9.12478e-19
-3.2105e-19
-9.02952e-19
-3.56926e-19
-8.81436e-19
-3.9161e-19
-8.49033e-19
-4.24733e-19
-8.06888e-19
-4.55993e-19
-7.56059e-19
-4.85128e-19
-6.97684e-19
-5.11904e-19
-6.32812e-19
-5.36137e-19
-5.62568e-19
-5.57639e-19
-4.87928e-19
-5.76281e-19
-4.09989e-19
-5.91924e-19
-3.29668e-19
-6.046e-19
-2.48002e-19
-6.14229e-19
-1.65841e-19
-6.20845e-19
-8.41971e-20
-6.24317e-19
-3.75254e-21
-6.2472e-19
7.46553e-20
-6.22022e-19
1.5055e-19
-6.16449e-19
2.23257e-19
-6.08082e-19
2.92373e-19
-5.97109e-19
3.57264e-19
-5.83497e-19
4.17643e-19
-5.67468e-19
4.73024e-19
-5.49038e-19
5.23253e-19
-5.28496e-19
5.68028e-19
-5.05893e-19
6.07329e-19
-4.81492e-19
6.40928e-19
-4.5533e-19
6.68886e-19
-4.27731e-19
6.91067e-19
-3.98768e-19
7.07602e-19
-3.68785e-19
7.18347e-19
-3.37867e-19
7.23426e-19
-3.0641e-19
7.22667e-19
-2.74515e-19
7.16103e-19
-2.42493e-19
7.03548e-19
-2.10378e-19
6.84895e-19
-1.78628e-19
6.59773e-19
-1.47317e-19
6.28337e-19
-1.17099e-19
5.89299e-19
-8.90021e-20
5.41525e-19
-6.21449e-20
4.88729e-19
-4.02168e-20
4.25975e-19
-2.67201e-20
3.46675e-19
-7.39424e-21
2.67255e-19
-2.28249e-22
1.68909e-19
6.37933e-20
-4.75208e-21
-9.43312e-20
-1.5914e-20
-2.56084e-19
-3.53071e-20
-3.99479e-19
-6.13026e-20
-5.2042e-19
-9.34758e-20
-6.21242e-19
-1.30415e-19
-7.03379e-19
-1.709e-19
-7.67381e-19
-2.13933e-19
-8.14614e-19
-2.58642e-19
-8.4617e-19
-3.04305e-19
-8.6313e-19
-3.50226e-19
-8.66487e-19
-3.95811e-19
-8.57359e-19
-4.40438e-19
-8.368e-19
-4.83622e-19
-8.05897e-19
-5.24837e-19
-7.65662e-19
-5.6373e-19
-7.17169e-19
-5.99895e-19
-6.61465e-19
-6.33144e-19
-5.99628e-19
-6.63084e-19
-5.32628e-19
-6.89629e-19
-4.61505e-19
-7.12457e-19
-3.87193e-19
-7.31674e-19
-3.10705e-19
-7.46957e-19
-2.32927e-19
-7.5847e-19
-1.54751e-19
-7.65934e-19
-7.69802e-20
-7.69613e-19
-3.69431e-22
-7.69286e-19
7.43905e-20
-7.65356e-19
1.46649e-19
-7.57621e-19
2.15788e-19
-7.46529e-19
2.81355e-19
-7.31903e-19
3.42902e-19
-7.14282e-19
4.00065e-19
-6.93488e-19
4.52471e-19
-6.70058e-19
4.99876e-19
-6.43794e-19
5.42053e-19
-6.15298e-19
5.78908e-19
-5.84393e-19
6.10302e-19
-5.51697e-19
6.36264e-19
-5.17092e-19
6.56728e-19
-4.81185e-19
6.71746e-19
-4.43898e-19
6.8129e-19
-4.05879e-19
6.85397e-19
-3.67086e-19
6.84024e-19
-3.28156e-19
6.77136e-19
-2.89064e-19
6.64617e-19
-2.50349e-19
6.46405e-19
-2.11873e-19
6.22237e-19
-1.74676e-19
5.91365e-19
-1.39129e-19
5.54229e-19
-1.05025e-19
5.11336e-19
-7.52221e-20
4.56795e-19
-4.87293e-20
3.94581e-19
-2.42521e-20
3.3132e-19
-1.75224e-20
2.47347e-19
-8.14451e-21
1.59712e-19
5.56215e-20
-4.59962e-21
-8.87268e-20
-1.84536e-20
-2.40564e-19
-4.08894e-20
-3.746e-19
-7.17764e-20
-4.88032e-19
-1.098e-19
-5.82471e-19
-1.53247e-19
-6.59451e-19
-2.00937e-19
-7.19353e-19
-2.51697e-19
-7.63501e-19
-3.04586e-19
-7.92991e-19
-3.58588e-19
-8.08763e-19
-4.13026e-19
-8.11806e-19
-4.6699e-19
-8.03141e-19
-5.19956e-19
-7.83725e-19
-5.71048e-19
-7.54555e-19
-6.19953e-19
-7.16567e-19
-6.65915e-19
-6.70889e-19
-7.08844e-19
-6.18415e-19
-7.47969e-19
-5.60211e-19
-7.83398e-19
-4.97113e-19
-8.14414e-19
-4.30215e-19
-8.41306e-19
-3.60289e-19
-8.63449e-19
-2.88403e-19
-8.81271e-19
-2.15205e-19
-8.94223e-19
-1.4176e-19
-9.02761e-19
-6.85926e-20
-9.06311e-19
3.29273e-21
-9.05455e-19
7.35118e-20
-8.99743e-19
1.41148e-19
-8.89957e-19
2.06021e-19
-8.75739e-19
2.67318e-19
-8.57907e-19
3.24986e-19
-8.36091e-19
3.78284e-19
-8.11038e-19
4.27282e-19
-7.82407e-19
4.71306e-19
-7.51015e-19
5.10532e-19
-7.16546e-19
5.44455e-19
-6.79828e-19
5.73416e-19
-6.40592e-19
5.96997e-19
-5.9967e-19
6.15569e-19
-5.56871e-19
6.28794e-19
-5.13059e-19
6.37079e-19
-4.68087e-19
6.4011e-19
-4.2276e-19
6.38241e-19
-3.77042e-19
6.31107e-19
-3.31614e-19
6.1895e-19
-2.86451e-19
6.01288e-19
-2.4242e-19
5.78116e-19
-1.99465e-19
5.49498e-19
-1.58322e-19
5.1444e-19
-1.20768e-19
4.70786e-19
-8.48807e-20
4.24407e-19
-5.51795e-20
3.69788e-19
-3.63487e-20
2.9748e-19
-1.04201e-20
2.29038e-19
-7.58193e-22
1.44535e-19
5.45592e-20
-5.84031e-21
-8.23193e-20
-2.07597e-20
-2.22871e-19
-4.69995e-20
-3.46471e-19
-8.22157e-20
-4.51728e-19
-1.25529e-19
-5.3861e-19
-1.7534e-19
-6.09516e-19
-2.2994e-19
-6.64773e-19
-2.88121e-19
-7.05379e-19
-3.48686e-19
-7.3244e-19
-4.10685e-19
-7.4688e-19
-4.73052e-19
-7.49591e-19
-5.35019e-19
-7.41391e-19
-5.95694e-19
-7.2328e-19
-6.54395e-19
-6.96119e-19
-7.10372e-19
-6.60888e-19
-7.63117e-19
-6.18438e-19
-8.12114e-19
-5.69756e-19
-8.56974e-19
-5.15682e-19
-8.97253e-19
-4.57236e-19
-9.32651e-19
-3.95114e-19
-9.6301e-19
-3.30389e-19
-9.88048e-19
-2.63626e-19
-1.00787e-18
-1.9593e-19
-1.02214e-18
-1.27752e-19
-1.03115e-18
-6.01336e-20
-1.03453e-18
6.50961e-21
-1.03274e-18
7.12682e-20
-1.02546e-18
1.33906e-19
-1.01341e-18
1.93613e-19
-9.96324e-19
2.50351e-19
-9.75081e-19
3.0339e-19
-9.49323e-19
3.52739e-19
-9.19963e-19
3.97651e-19
-8.86543e-19
4.38175e-19
-8.50042e-19
4.73827e-19
-8.10053e-19
5.04816e-19
-7.67632e-19
5.3083e-19
-7.22382e-19
5.52071e-19
-6.7535e-19
5.68388e-19
-6.26236e-19
5.79966e-19
-5.76135e-19
5.86787e-19
-5.24782e-19
5.89064e-19
-4.73273e-19
5.86675e-19
-4.21353e-19
5.79673e-19
-3.70046e-19
5.67871e-19
-3.19181e-19
5.51278e-19
-2.69597e-19
5.2976e-19
-2.2158e-19
5.02376e-19
-1.76872e-19
4.69577e-19
-1.33648e-19
4.33225e-19
-9.62479e-20
3.85883e-19
-6.34633e-20
3.30119e-19
-3.15602e-20
2.78847e-19
-2.16376e-20
2.0597e-19
-9.88473e-21
1.33763e-19
4.47221e-20
-6.20059e-21
-7.54858e-20
-2.31909e-20
-2.0378e-19
-5.27205e-20
-3.16381e-19
-9.25193e-20
-4.11868e-19
-1.41229e-19
-4.90869e-19
-1.97161e-19
-5.55176e-19
-2.58275e-19
-6.05132e-19
-3.23564e-19
-6.41789e-19
-3.91377e-19
-6.66138e-19
-4.61002e-19
-6.79097e-19
-5.3076e-19
-6.8132e-19
-6.00419e-19
-6.7384e-19
-6.68078e-19
-6.57253e-19
-7.34082e-19
-6.3254e-19
-7.96375e-19
-6.00267e-19
-8.55903e-19
-5.61664e-19
-9.10164e-19
-5.17195e-19
-9.60754e-19
-4.68031e-19
-1.00493e-18
-4.14553e-19
-1.04499e-18
-3.58096e-19
-1.07774e-18
-2.98883e-19
-1.10616e-18
-2.38282e-19
-1.12676e-18
-1.76315e-19
-1.1431e-18
-1.14378e-19
-1.15135e-18
-5.24513e-20
-1.15549e-18
8.06801e-21
-1.15141e-18
6.73728e-20
-1.14365e-18
1.24116e-19
-1.12791e-18
1.78788e-19
-1.10919e-18
2.30191e-19
-1.0831e-18
2.78861e-19
-1.05487e-18
3.23533e-19
-1.01988e-18
3.64692e-19
-9.83352e-19
4.01081e-19
-9.40562e-19
4.33412e-19
-8.96794e-19
4.60806e-19
-8.47528e-19
4.8415e-19
-7.97983e-19
5.02776e-19
-7.43874e-19
5.17222e-19
-6.90144e-19
5.26945e-19
-6.32801e-19
5.32741e-19
-5.76623e-19
5.34189e-19
-5.18103e-19
5.31777e-19
-4.61541e-19
5.25029e-19
-4.03858e-19
5.14172e-19
-3.48655e-19
4.98664e-19
-2.93642e-19
4.78442e-19
-2.42075e-19
4.53861e-19
-1.91386e-19
4.24605e-19
-1.46434e-19
3.87288e-19
-1.04487e-19
3.47589e-19
-6.76801e-20
3.04894e-19
-4.44638e-20
2.42628e-19
-1.33795e-20
1.8642e-19
2.05961e-23
1.17669e-19
4.46597e-20
-5.9696e-21
-6.86104e-20
-2.62393e-20
-1.8372e-19
-5.84824e-20
-2.84352e-19
-1.03005e-19
-3.69079e-19
-1.56874e-19
-4.39283e-19
-2.18529e-19
-4.95456e-19
-2.86327e-19
-5.39563e-19
-3.58094e-19
-5.71723e-19
-4.33226e-19
-5.93075e-19
-5.09578e-19
-6.04198e-19
-5.86958e-19
-6.06218e-19
-6.63009e-19
-5.99228e-19
-7.38231e-19
-5.84597e-19
-8.1005e-19
-5.62282e-19
-8.79565e-19
-5.33935e-19
-9.43794e-19