/*--------------------------------*- C++ -*----------------------------------*\
| =========                 |                                                 |
| \\      /  F ield         | OpenFOAM: The Open Source CFD Toolbox           |
|  \\    /   O peration     | Version:  5.0                                   |
|   \\  /    A nd           | Web:      www.OpenFOAM.org                      |
|    \\/     M anipulation  |                                                 |
\*---------------------------------------------------------------------------*/
FoamFile
{
    version     2.0;
    format      ascii;
    class       surfaceScalarField;
    location    "1.9";
    object      phi;
}
// * * * * * * * * * * * * * * * * * * * * * * * * * * * * * * * * * * * * * //

dimensions      [0 3 -1 0 0 0 0];

internalField   nonuniform List<scalar> 
85
(
0.000100749
5.10983e-20
0.000100749
2.64246e-20
0.000100749
-8.75469e-21
0.000100749
3.48558e-20
-8.17915e-20
0.000100749
1.61577e-19
0.000100749
2.73326e-20
0.000100749
-6.64179e-20
0.000100749
6.85967e-20
-2.28479e-19
0.000100749
3.01763e-19
0.000100749
4.58844e-21
0.000100749
-6.86176e-20
0.000100749
1.73316e-19
-1.96598e-19
0.000100749
2.08573e-19
0.000100749
1.57509e-19
0.000100749
-1.02726e-19
0.000100749
1.67012e-19
-1.66406e-19
0.000100749
2.39264e-19
0.000100749
1.84577e-20
0.000100749
-2.74947e-21
0.000100749
2.11859e-19
-1.96968e-19
0.000100749
2.59995e-19
0.000100749
2.24558e-19
0.000100749
8.68284e-20
0.000100749
2.92382e-19
-1.45306e-19
0.000100749
2.8282e-19
0.000100749
2.65851e-19
0.000100749
-1.48232e-19
0.000100749
2.59885e-19
-4.81021e-20
0.000100749
1.92666e-19
0.000100749
1.96168e-19
0.000100749
-1.66975e-19
0.000100749
2.80967e-19
-1.44925e-19
0.000100749
2.53887e-19
0.000100749
4.29164e-19
0.000100749
-1.01102e-19
0.000100749
3.53092e-19
-1.31876e-19
0.000100749
0.000100749
0.000100749
0.000100749
)
;

boundaryField
{
    top
    {
        type            calculated;
        value           nonuniform List<scalar> 5(3.56617e-19 3.19869e-19 -2.26273e-19 3.46757e-19 -3.30325e-19);
    }
    bottom
    {
        type            symmetryPlane;
        value           uniform 0;
    }
    inlet
    {
        type            calculated;
        value           nonuniform List<scalar> 10(-0.000100749 -0.000100749 -0.000100749 -0.000100749 -0.000100749 -0.000100749 -0.000100749 -0.000100749 -0.000100749 -0.000100749);
    }
    outlet
    {
        type            calculated;
        value           nonuniform 0();
    }
    frontAndBack
    {
        type            empty;
        value           nonuniform 0();
    }
    procBoundary0to1
    {
        type            processor;
        value           nonuniform List<scalar> 10(0.000100749 0.000100749 0.000100749 0.000100749 0.000100749 0.000100749 0.000100749 0.000100749 0.000100749 0.000100749);
    }
}


// ************************************************************************* //
