/*--------------------------------*- C++ -*----------------------------------*\
| =========                 |                                                 |
| \\      /  F ield         | OpenFOAM: The Open Source CFD Toolbox           |
|  \\    /   O peration     | Version:  5.0                                   |
|   \\  /    A nd           | Web:      www.OpenFOAM.org                      |
|    \\/     M anipulation  |                                                 |
\*---------------------------------------------------------------------------*/
FoamFile
{
    version     2.0;
    format      ascii;
    class       volScalarField;
    location    "1.9";
    object      shearRate;
}
// * * * * * * * * * * * * * * * * * * * * * * * * * * * * * * * * * * * * * //

dimensions      [0 0 -1 0 0 0 0];

internalField   nonuniform List<scalar> 
50
(
2.77558e-15
2.21344e-14
4.85247e-15
6.8622e-15
5.42771e-16
2.83995e-15
5.43275e-15
2.23383e-14
6.52356e-14
3.30113e-15
2.19847e-14
3.49993e-15
2.1944e-14
4.46596e-14
5.27291e-15
4.11414e-15
6.50685e-14
2.21431e-14
2.30137e-14
6.56508e-14
2.37145e-14
3.21291e-15
2.40681e-14
4.19248e-15
4.35666e-14
6.64111e-15
6.32833e-15
9.15027e-15
2.4375e-14
3.06193e-15
5.44565e-15
2.26514e-14
4.35836e-14
1.04653e-14
2.21808e-14
5.26917e-15
6.01647e-15
2.17767e-14
9.52651e-15
2.39829e-14
4.44695e-15
2.73574e-15
2.428e-14
2.20071e-14
2.58151e-14
2.18586e-14
4.40363e-14
6.53659e-14
6.5111e-14
8.70008e-14
)
;

boundaryField
{
    top
    {
        type            zeroGradient;
    }
    bottom
    {
        type            symmetryPlane;
    }
    inlet
    {
        type            zeroGradient;
    }
    outlet
    {
        type            zeroGradient;
    }
    frontAndBack
    {
        type            empty;
    }
    procBoundary0to1
    {
        type            processor;
        value           nonuniform List<scalar> 10(2.30442e-14 6.52494e-14 2.30414e-14 2.48668e-14 2.43225e-14 4.41923e-14 2.21377e-14 4.43689e-14 4.42789e-14 1.73561e-13);
    }
}


// ************************************************************************* //
