/*--------------------------------*- C++ -*----------------------------------*\
| =========                 |                                                 |
| \\      /  F ield         | OpenFOAM: The Open Source CFD Toolbox           |
|  \\    /   O peration     | Version:  5.0                                   |
|   \\  /    A nd           | Web:      www.OpenFOAM.org                      |
|    \\/     M anipulation  |                                                 |
\*---------------------------------------------------------------------------*/
FoamFile
{
    version     2.0;
    format      ascii;
    class       volVectorField;
    location    "1.9";
    object      U;
}
// * * * * * * * * * * * * * * * * * * * * * * * * * * * * * * * * * * * * * //

dimensions      [0 1 -1 0 0 0 0];

internalField   nonuniform List<vector> 
25
(
(1 2.32252e-10 -7.09623e-30)
(1 -1.05615e-09 -3.2324e-23)
(1 1.08794e-09 -3.2324e-23)
(1 6.4448e-10 -3.2324e-23)
(1 4.94828e-11 -7.44302e-30)
(0.92 -1.77128e-10 -7.11298e-37)
(0.92 -2.1127e-09 2.79794e-23)
(0.92 2.12215e-09 1.33195e-29)
(0.92 3.20577e-09 -2.79794e-23)
(0.92 5.42865e-10 -2.79794e-23)
(0.76 -2.62072e-09 -2.73702e-23)
(0.76 -1.07081e-09 -4.27923e-30)
(0.76 1.6652e-09 2.79794e-23)
(0.76 1.15292e-08 -5.59588e-23)
(0.76 3.03367e-09 -5.59589e-23)
(0.52 -4.37602e-09 5.48443e-23)
(0.52 3.88258e-10 2.79794e-23)
(0.52 1.12948e-09 -5.59588e-23)
(0.52 1.75385e-08 -2.79798e-23)
(0.52 4.60056e-09 5.59589e-23)
(0.2 -1.74848e-09 3.93808e-23)
(0.2 3.77694e-10 1.99393e-23)
(0.2 1.64418e-10 -5.9818e-23)
(0.2 6.61964e-09 -1.99394e-23)
(0.2 1.6715e-09 3.98787e-23)
)
;

boundaryField
{
    top
    {
        type            fixedValue;
        value           uniform (0 0 0);
    }
    bottom
    {
        type            symmetryPlane;
    }
    inlet
    {
        type            pressureInletVelocity;
        value           nonuniform List<vector> 5((1 -0 -0) (0.92 -0 -0) (0.76 -0 -0) (0.52 -0 -0) (0.2 -0 -0));
    }
    outlet
    {
        type            inletOutlet;
        inletValue      nonuniform 0();
        value           nonuniform 0();
    }
    frontAndBack
    {
        type            empty;
    }
    procBoundary0to1
    {
        type            processor;
        value           nonuniform List<vector> 5((1 -8.33031e-10 6.46481e-23) (0.92 -2.64136e-09 -2.79794e-23) (0.76 -8.01119e-09 2.79794e-23) (0.52 -1.21259e-08 5.59587e-23) (0.2 -4.53195e-09 3.98787e-23));
    }
}


// ************************************************************************* //
