/*--------------------------------*- C++ -*----------------------------------*\
| =========                 |                                                 |
| \\      /  F ield         | OpenFOAM: The Open Source CFD Toolbox           |
|  \\    /   O peration     | Version:  5.0                                   |
|   \\  /    A nd           | Web:      www.OpenFOAM.org                      |
|    \\/     M anipulation  |                                                 |
\*---------------------------------------------------------------------------*/
FoamFile
{
    version     2.0;
    format      ascii;
    class       volVectorField;
    location    "2.5";
    object      U;
}
// * * * * * * * * * * * * * * * * * * * * * * * * * * * * * * * * * * * * * //

dimensions      [0 1 -1 0 0 0 0];

internalField   nonuniform List<vector> 
25
(
(0.98628 0.00422368 6.14978e-23)
(0.985389 -7.58039e-06 -4.39737e-23)
(0.984011 1.7045e-06 -4.61725e-23)
(0.985877 5.91955e-05 -4.61322e-23)
(0.981197 -0.00205176 3.29815e-23)
(0.786151 0.00347636 -8.95566e-37)
(0.789625 -3.97153e-05 4.68477e-23)
(0.787761 3.18792e-05 5.35583e-26)
(0.789579 0.000249048 -3.73611e-23)
(0.786651 -0.00135349 -4.09475e-23)
(0.589213 -8.74102e-05 -2.58732e-23)
(0.592923 0.000195244 -2.94414e-26)
(0.591302 3.30866e-05 2.75384e-23)
(0.592749 3.51426e-05 -5.5749e-23)
(0.591121 0.000274307 -5.462e-23)
(0.395131 -0.00265942 -1.44186e-22)
(0.395008 0.000313426 3.13506e-23)
(0.394707 2.28976e-05 -4.12013e-23)
(0.395272 -9.55474e-05 -1.58891e-23)
(0.395298 0.00143894 -5.21579e-23)
(0.200824 -0.0113056 3.64523e-23)
(0.197127 4.40595e-05 1.57045e-23)
(0.198131 1.62448e-05 -4.94728e-23)
(0.197814 -2.83434e-06 -1.50657e-23)
(0.199139 0.00565555 3.40528e-23)
)
;

boundaryField
{
    top
    {
        type            fixedValue;
        value           uniform (0 0 0);
    }
    bottom
    {
        type            symmetryPlane;
    }
    inlet
    {
        type            pressureInletVelocity;
        value           nonuniform List<vector> 5((0.987145 -0 -0) (0.785404 -0 -0) (0.587914 -0 -0) (0.39496 -0 -0) (0.202757 -0 -0));
    }
    outlet
    {
        type            inletOutlet;
        inletValue      nonuniform 0();
        value           nonuniform 0();
    }
    frontAndBack
    {
        type            empty;
    }
    procBoundary0to1
    {
        type            processor;
        value           nonuniform List<vector> 5((0.985371 0.00241456 9.08006e-23) (0.789874 0.00554134 -3.46572e-23) (0.593508 0.00254878 4.8144e-23) (0.396746 -0.000590881 1.2299e-22) (0.199603 -0.00516682 7.95183e-25));
    }
}


// ************************************************************************* //
