/*--------------------------------*- C++ -*----------------------------------*\
| =========                 |                                                 |
| \\      /  F ield         | OpenFOAM: The Open Source CFD Toolbox           |
|  \\    /   O peration     | Version:  5.0                                   |
|   \\  /    A nd           | Web:      www.OpenFOAM.org                      |
|    \\/     M anipulation  |                                                 |
\*---------------------------------------------------------------------------*/
FoamFile
{
    version     2.0;
    format      ascii;
    class       volScalarField;
    location    "0.1";
    object      p;
}
// * * * * * * * * * * * * * * * * * * * * * * * * * * * * * * * * * * * * * //

dimensions      [0 2 -2 0 0 0 0];

internalField   nonuniform List<scalar> 
50
(
9.9586
9.96838
9.97896
9.97018
9.98061
9.9586
9.96837
9.97897
9.97018
9.98062
9.95862
9.96837
9.97894
9.9702
9.98063
9.95866
9.96837
9.97889
9.97024
9.98066
9.95872
9.96836
9.97883
9.9703
9.98068
9.95878
9.96836
9.97876
9.97036
9.98071
9.95886
9.96836
9.97867
9.97044
9.98075
9.95897
9.96835
9.97853
9.97056
9.98078
9.95911
9.96836
9.97837
9.97072
9.98082
9.95921
9.96836
9.97825
9.97083
9.98082
)
;

boundaryField
{
    top
    {
        type            zeroGradient;
    }
    bottom
    {
        type            symmetryPlane;
    }
    inlet
    {
        type            zeroGradient;
    }
    outlet
    {
        type            fixedValue;
        value           nonuniform 0();
    }
    frontAndBack
    {
        type            empty;
    }
    procBoundary0to1
    {
        type            processor;
        value           nonuniform List<scalar> 10(9.99075 9.99075 9.99071 9.99064 9.99056 9.99046 9.99034 9.99018 9.98998 9.98985);
    }
}


// ************************************************************************* //
