/*--------------------------------*- C++ -*----------------------------------*\
| =========                 |                                                 |
| \\      /  F ield         | OpenFOAM: The Open Source CFD Toolbox           |
|  \\    /   O peration     | Version:  5.0                                   |
|   \\  /    A nd           | Web:      www.OpenFOAM.org                      |
|    \\/     M anipulation  |                                                 |
\*---------------------------------------------------------------------------*/
FoamFile
{
    version     2.0;
    format      ascii;
    class       volVectorField;
    location    "0.1";
    object      U;
}
// * * * * * * * * * * * * * * * * * * * * * * * * * * * * * * * * * * * * * //

dimensions      [0 1 -1 0 0 0 0];

internalField   nonuniform List<vector> 
25
(
(1.02783 2.48754e-05 -6.9678e-26)
(1.02699 2.27237e-05 -3.24011e-23)
(1.02745 7.56532e-07 -3.23499e-23)
(1.02716 1.1013e-06 -3.23402e-23)
(1.02733 -5.31229e-07 1.22229e-27)
(0.94496 6.74009e-05 -7.06582e-37)
(0.94434 5.88798e-05 2.77518e-23)
(0.944782 2.85919e-07 -7.29506e-27)
(0.944517 3.27619e-06 -2.79882e-23)
(0.944676 -1.69807e-06 -2.79986e-23)
(0.779569 8.21485e-05 -2.71851e-23)
(0.779308 6.69896e-05 4.60647e-25)
(0.779695 -2.37676e-06 2.80041e-23)
(0.77948 4.75222e-06 -5.59869e-23)
(0.77961 -2.59671e-06 -5.59971e-23)
(0.532316 6.02853e-05 5.43116e-23)
(0.53239 4.51654e-05 2.81103e-23)
(0.532674 -3.93695e-06 -5.6007e-23)
(0.532528 3.99972e-06 -2.80259e-23)
(0.532617 -2.29399e-06 5.59871e-23)
(0.204096 2.05516e-05 3.91251e-23)
(0.204268 1.46264e-05 1.99406e-23)
(0.204386 -1.69615e-06 -5.987e-23)
(0.204329 1.46921e-06 -1.9952e-23)
(0.204363 -8.5343e-07 3.99059e-23)
)
;

boundaryField
{
    top
    {
        type            fixedValue;
        value           uniform (0 0 0);
    }
    bottom
    {
        type            symmetryPlane;
    }
    inlet
    {
        type            pressureInletVelocity;
        value           nonuniform List<vector> 5((1.02773 -0 -0) (0.944877 -0 -0) (0.779489 -0 -0) (0.532238 -0 -0) (0.20404 -0 -0));
    }
    outlet
    {
        type            inletOutlet;
        inletValue      nonuniform 0();
        value           nonuniform 0();
    }
    frontAndBack
    {
        type            empty;
    }
    procBoundary0to1
    {
        type            processor;
        value           nonuniform List<vector> 5((1.02723 3.52437e-07 6.46861e-23) (0.944578 1.15054e-06 -2.79972e-23) (0.77953 1.72432e-06 2.80024e-23) (0.532563 1.51649e-06 5.59979e-23) (0.204343 5.57906e-07 3.99013e-23));
    }
}


// ************************************************************************* //
