/*--------------------------------*- C++ -*----------------------------------*\
| =========                 |                                                 |
| \\      /  F ield         | OpenFOAM: The Open Source CFD Toolbox           |
|  \\    /   O peration     | Version:  5.0                                   |
|   \\  /    A nd           | Web:      www.OpenFOAM.org                      |
|    \\/     M anipulation  |                                                 |
\*---------------------------------------------------------------------------*/
FoamFile
{
    version     2.0;
    format      ascii;
    class       volScalarField;
    location    "350";
    object      p;
}
// * * * * * * * * * * * * * * * * * * * * * * * * * * * * * * * * * * * * * //

dimensions      [0 2 -2 0 0 0 0];

internalField   nonuniform List<scalar> 
7000
(
-2.67508e-07
-0.000403208
-0.000580713
-0.000580134
-0.000573305
-0.000585692
-0.000588399
-0.000574545
-0.00055217
-0.000527558
-0.000504121
-0.000479375
-0.000437367
-0.000388159
3.31607e-05
-0.000390214
-0.000583269
-0.000588556
-0.000584258
-0.000598603
-0.000603405
-0.000591271
-0.000569329
-0.000542243
-0.000510794
-0.000468401
-0.000406771
-0.000345916
3.52874e-05
-0.000393524
-0.000588078
-0.000593682
-0.000592424
-0.000609873
-0.000617068
-0.000606189
-0.000583126
-0.000550138
-0.00050495
-0.000445116
-0.000375092
-0.000317352
3.26995e-05
-0.000393684
-0.000586238
-0.000593143
-0.000595748
-0.000616897
-0.000626872
-0.000618118
-0.000595591
-0.000560235
-0.000509441
-0.000443171
-0.000370131
-0.000315735
2.72072e-05
-0.000395345
-0.000584384
-0.000591966
-0.000597622
-0.000621689
-0.000634159
-0.000627894
-0.000607227
-0.000572044
-0.000519106
-0.000449441
-0.000375268
-0.00032346
2.13628e-05
-0.000396404
-0.000581309
-0.000589567
-0.000598023
-0.000624549
-0.00063924
-0.000635579
-0.000617307
-0.000583413
-0.000530093
-0.000458946
-0.000384609
-0.000334306
1.77047e-05
-0.000395734
-0.000577789
-0.000587337
-0.000598215
-0.000626655
-0.000643279
-0.000641877
-0.00062588
-0.000593625
-0.000540787
-0.000469194
-0.000395086
-0.0003461
1.63931e-05
-0.000393851
-0.000574294
-0.000585424
-0.000598253
-0.000628038
-0.000646177
-0.000646671
-0.000632708
-0.000602092
-0.000550029
-0.000478498
-0.000404883
-0.000357319
1.56501e-05
-0.000391767
-0.000571102
-0.000583831
-0.000598144
-0.000628766
-0.00064803
-0.000650118
-0.000637837
-0.000608578
-0.000557248
-0.000485955
-0.000412878
-0.000366574
1.36403e-05
-0.000390366
-0.000568644
-0.000582716
-0.000597953
-0.000629051
-0.000649108
-0.000652335
-0.000641233
-0.000612942
-0.000562159
-0.000491063
-0.00041835
-0.000372963
9.93091e-06
-0.000390093
-0.000567297
-0.000582245
-0.000597758
-0.000629022
-0.00064956
-0.00065344
-0.000643003
-0.000615238
-0.000564721
-0.000493664
-0.00042102
-0.000376079
5.90072e-06
-0.000390842
-0.000567379
-0.00058255
-0.000597685
-0.000628856
-0.000649577
-0.000653632
-0.000643307
-0.000615578
-0.000564967
-0.000493727
-0.000420888
-0.000375825
3.7911e-06
-0.000392094
-0.00056904
-0.000583567
-0.000597854
-0.000628731
-0.000649272
-0.000653019
-0.000642291
-0.000614092
-0.000562954
-0.000491235
-0.000418011
-0.00037256
5.08598e-06
-0.000393395
-0.000571935
-0.000585247
-0.000598356
-0.000628687
-0.000648669
-0.000651667
-0.000640065
-0.000610881
-0.000558741
-0.000486223
-0.0004125
-0.000366743
9.61156e-06
-0.000394233
-0.000575354
-0.000587469
-0.000599153
-0.000628672
-0.000647782
-0.000649631
-0.000636681
-0.000605993
-0.000552393
-0.000478824
-0.000404585
-0.000358661
1.62844e-05
-0.000394187
-0.000578951
-0.00059012
-0.000600147
-0.000628601
-0.000646577
-0.000646886
-0.00063207
-0.000599371
-0.000543957
-0.000469227
-0.000394518
-0.000348465
2.39927e-05
-0.000393235
-0.000582401
-0.000593071
-0.000601273
-0.000628278
-0.000644809
-0.000643247
-0.000626078
-0.000590941
-0.000533535
-0.000457718
-0.000382584
-0.000336236
3.19725e-05
-0.000391416
-0.000585389
-0.000596114
-0.000602383
-0.000627588
-0.000642317
-0.000638438
-0.000618518
-0.000580724
-0.000521409
-0.00044475
-0.000369146
-0.000321998
4.01535e-05
-0.000388541
-0.000587666
-0.000598921
-0.000603097
-0.000626099
-0.000638696
-0.000632158
-0.000609328
-0.000569005
-0.000508165
-0.000431002
-0.000354793
-0.000306243
4.90658e-05
-0.000384282
-0.000588843
-0.00060094
-0.00060294
-0.000623534
-0.000633854
-0.000624627
-0.000599063
-0.000556659
-0.000494837
-0.000417498
-0.000340575
-0.000290246
5.91932e-05
-0.000378357
-0.000588492
-0.000601729
-0.00060157
-0.000619875
-0.000628279
-0.000616814
-0.000589011
-0.000545122
-0.000482871
-0.000405602
-0.000327968
-0.000276106
7.03582e-05
-0.000370961
-0.000586517
-0.000601238
-0.000599344
-0.000615753
-0.00062275
-0.000609786
-0.000580521
-0.00053583
-0.000473606
-0.000396562
-0.000318367
-0.000265712
8.13201e-05
-0.000363163
-0.000583291
-0.00059965
-0.000596937
-0.000612208
-0.000618375
-0.000604631
-0.000574702
-0.000529778
-0.000467807
-0.000390997
-0.000312461
-0.000259672
8.97084e-05
-0.000356931
-0.000579727
-0.000597325
-0.000594804
-0.000610018
-0.000616007
-0.000602073
-0.000572058
-0.000527195
-0.000465407
-0.000388636
-0.000309866
-0.000257188
9.36183e-05
-0.000353822
-0.000577229
-0.000595395
-0.000593739
-0.000609767
-0.000616142
-0.0006024
-0.000572502
-0.000527657
-0.000465735
-0.000388653
-0.000309571
-0.000256856
9.21178e-05
-0.000354422
-0.000576549
-0.000594624
-0.000594167
-0.000611462
-0.000618634
-0.000605366
-0.000575699
-0.000530788
-0.000468438
-0.000390738
-0.000311163
-0.000258108
8.5425e-05
-0.000358376
-0.000577032
-0.0005943
-0.000595311
-0.000614316
-0.000622776
-0.000610469
-0.00058145
-0.000536669
-0.000473811
-0.000395309
-0.000315201
-0.000261765
7.54349e-05
-0.000364169
-0.000577526
-0.000593464
-0.000596327
-0.000617632
-0.000627964
-0.000617318
-0.00058964
-0.000545436
-0.000482203
-0.000402845
-0.000322354
-0.000268806
6.47175e-05
-0.000370071
-0.000577184
-0.000591554
-0.00059655
-0.000620584
-0.000633361
-0.000625213
-0.000599739
-0.000556761
-0.000493501
-0.000413328
-0.000332516
-0.000279285
5.42879e-05
-0.000375193
-0.000575665
-0.000588428
-0.00059558
-0.00062249
-0.000638239
-0.000633311
-0.000610827
-0.000569849
-0.000507117
-0.000426255
-0.000344944
-0.000292168
4.43697e-05
-0.000379008
-0.000572748
-0.000584105
-0.000593479
-0.000623326
-0.000642107
-0.000640702
-0.000621801
-0.000583632
-0.000522158
-0.000440934
-0.000358862
-0.000306046
3.54201e-05
-0.000381
-0.00056828
-0.000578922
-0.000590837
-0.000623395
-0.000644856
-0.000646831
-0.000631729
-0.000596918
-0.000537453
-0.00045644
-0.000373579
-0.000320177
2.88968e-05
-0.000380579
-0.000562427
-0.000573518
-0.000588253
-0.000623205
-0.000646977
-0.000651835
-0.000640163
-0.000608698
-0.000551695
-0.000471562
-0.000388354
-0.000334385
2.70524e-05
-0.000377357
-0.00055577
-0.000568391
-0.000586195
-0.000623382
-0.000649073
-0.000656157
-0.00064707
-0.000618356
-0.000563746
-0.000484971
-0.00040218
-0.000348352
3.13745e-05
-0.000371556
-0.000549211
-0.000564113
-0.000584983
-0.000624262
-0.000651424
-0.00065999
-0.000652581
-0.000625752
-0.000573004
-0.000495659
-0.00041392
-0.00036113
4.01629e-05
-0.000364406
-0.000543671
-0.000561167
-0.000584507
-0.000625509
-0.000653833
-0.000663366
-0.00065693
-0.000631154
-0.000579517
-0.000503258
-0.000422731
-0.000371417
4.61252e-05
-0.000359546
-0.000540416
-0.000559677
-0.000584321
-0.000626368
-0.000655536
-0.000665731
-0.000659872
-0.000634635
-0.000583517
-0.000507822
-0.000428153
-0.000378219
4.22982e-05
-0.000361613
-0.000541153
-0.00055983
-0.00058434
-0.000626401
-0.000655698
-0.000666134
-0.000660534
-0.00063551
-0.000584587
-0.000509095
-0.000429739
-0.000380389
3.26228e-05
-0.00036858
-0.0005453
-0.000561621
-0.000584636
-0.00062563
-0.000654231
-0.000664284
-0.000658351
-0.000632954
-0.00058173
-0.000506068
-0.000426516
-0.000376625
2.47686e-05
-0.000375947
-0.000551648
-0.000565402
-0.000585755
-0.000624826
-0.000652069
-0.000660954
-0.000653763
-0.000626957
-0.000574431
-0.000497931
-0.00041781
-0.000366942
2.2075e-05
-0.000381913
-0.000559369
-0.000570961
-0.000588067
-0.000624761
-0.000650133
-0.000657053
-0.000647627
-0.000618344
-0.000563431
-0.000485369
-0.000404618
-0.000353194
2.41322e-05
-0.000385866
-0.000567323
-0.000577539
-0.000591442
-0.000625579
-0.000648661
-0.000652964
-0.000640491
-0.000607916
-0.000550003
-0.000470195
-0.00038921
-0.000338054
2.95939e-05
-0.000387498
-0.000574379
-0.000584206
-0.000595251
-0.00062675
-0.000647253
-0.000648395
-0.000632249
-0.000595994
-0.00053518
-0.000454147
-0.00037354
-0.000323186
3.73708e-05
-0.000386682
-0.000579785
-0.000590162
-0.000598638
-0.000627339
-0.000645012
-0.000642623
-0.000622562
-0.000582787
-0.000519749
-0.000438353
-0.00035848
-0.000308684
4.68219e-05
-0.000383469
-0.000583216
-0.000594808
-0.000600852
-0.000626529
-0.000641114
-0.000635115
-0.000611377
-0.000568734
-0.000504423
-0.000423421
-0.000344147
-0.000294056
5.76753e-05
-0.000378126
-0.000584684
-0.000597763
-0.000601372
-0.000623969
-0.000635518
-0.00062621
-0.000599388
-0.000554756
-0.000490061
-0.000409844
-0.0003308
-0.000279616
6.96503e-05
-0.000371153
-0.000584424
-0.000599027
-0.000600189
-0.0006199
-0.00062891
-0.000616995
-0.000587906
-0.00054215
-0.000477706
-0.000398373
-0.000319305
-0.000267009
8.19445e-05
-0.000363413
-0.000582786
-0.000598918
-0.000598025
-0.000615288
-0.000622384
-0.000608765
-0.000578343
-0.000532186
-0.000468354
-0.000389861
-0.00031072
-0.000257923
9.23295e-05
-0.000357193
-0.000580444
-0.000597623
-0.000595694
-0.000611399
-0.000617204
-0.000602668
-0.000571774
-0.000525721
-0.000462568
-0.000384735
-0.000305536
-0.000252557
0.000100612
-0.000355811
-0.000579279
-0.000595881
-0.000593999
-0.00060931
-0.00061441
-0.000599423
-0.000568471
-0.000522678
-0.000460017
-0.000382554
-0.000303231
-0.000249679
-0.000400883
-0.000525513
-0.000594247
-0.000603893
-0.000606098
-0.000611703
-0.000608896
-0.000594778
-0.000573465
-0.000549452
-0.000525922
-0.000501401
-0.000460946
-0.00041423
-0.000389264
-0.000524661
-0.000595508
-0.000609045
-0.000617112
-0.000627619
-0.00062812
-0.000615506
-0.000593995
-0.00056744
-0.000537753
-0.000498363
-0.000440004
-0.000381566
-0.000390834
-0.000528119
-0.000597252
-0.000611384
-0.000622555
-0.000636049
-0.000639337
-0.000629377
-0.000609116
-0.000579245
-0.000537692
-0.000482263
-0.000416742
-0.000360713
-0.00039316
-0.000529497
-0.000596508
-0.000611387
-0.000625267
-0.000641321
-0.000647278
-0.000640225
-0.000621926
-0.000591571
-0.000546302
-0.000485735
-0.000417108
-0.000362899
-0.000396256
-0.000530199
-0.000594711
-0.000610226
-0.000626107
-0.000644123
-0.000652288
-0.000648098
-0.000632776
-0.000604464
-0.000559061
-0.000496005
-0.000425385
-0.000372631
-0.000398944
-0.000529591
-0.000591797
-0.000608235
-0.000625835
-0.000645392
-0.000655586
-0.000654024
-0.000641802
-0.000616212
-0.000571971
-0.000507979
-0.00043635
-0.000384548
-0.000399717
-0.000527294
-0.000588434
-0.000606235
-0.000625378
-0.000646124
-0.000657913
-0.000658717
-0.000649262
-0.000626307
-0.000583593
-0.00051946
-0.000447401
-0.000396467
-0.000398648
-0.000523872
-0.000584927
-0.000604375
-0.00062486
-0.000646514
-0.000659553
-0.000662295
-0.000655158
-0.000634463
-0.000593168
-0.000529223
-0.000457126
-0.000407152
-0.000396689
-0.000520196
-0.000581578
-0.000602692
-0.000624289
-0.000646601
-0.000660554
-0.000664779
-0.000659511
-0.0006406
-0.000600439
-0.000536751
-0.000464773
-0.000415579
-0.000395169
-0.000517148
-0.000578869
-0.000601322
-0.000623707
-0.000646467
-0.000661057
-0.000666328
-0.000662401
-0.000644749
-0.000605355
-0.0005418
-0.000469893
-0.000421242
-0.000395278
-0.000515356
-0.000577295
-0.000600535
-0.000623264
-0.000646292
-0.00066129
-0.000667169
-0.00066399
-0.000647007
-0.000607956
-0.000544354
-0.000472369
-0.000423992
-0.000396571
-0.00051519
-0.000577408
-0.000600602
-0.000623183
-0.000646262
-0.000661381
-0.000667419
-0.000664404
-0.000647502
-0.000608344
-0.000544483
-0.000472277
-0.000423821
-0.00039794
-0.000516998
-0.000579274
-0.000601553
-0.000623559
-0.000646422
-0.000661356
-0.000667143
-0.000663785
-0.000646399
-0.00060664
-0.000542221
-0.000469639
-0.000420935
-0.000398912
-0.000520225
-0.000582391
-0.000603292
-0.000624368
-0.000646737
-0.000661227
-0.000666425
-0.000662267
-0.000643853
-0.000602957
-0.000537611
-0.0004645
-0.000415615
-0.000399099
-0.000523651
-0.000586219
-0.000605694
-0.000625583
-0.000647227
-0.000661036
-0.000665319
-0.00065992
-0.00063993
-0.000597339
-0.000530712
-0.000457018
-0.000408058
-0.000398268
-0.000526735
-0.000590361
-0.000608572
-0.000627165
-0.000647913
-0.00066079
-0.000663785
-0.000656673
-0.000634535
-0.000589731
-0.000521594
-0.000447369
-0.000398395
-0.000396619
-0.000529246
-0.000594535
-0.000611788
-0.000629026
-0.000648727
-0.000660362
-0.000661553
-0.000652186
-0.000627346
-0.000579973
-0.000510348
-0.000435751
-0.000386665
-0.000394331
-0.000530925
-0.000598405
-0.000615104
-0.000630935
-0.000649317
-0.00065931
-0.000658245
-0.000646021
-0.000618037
-0.000568039
-0.000497236
-0.000422429
-0.00037285
-0.000391145
-0.000531405
-0.000601639
-0.000618008
-0.000632356
-0.000649163
-0.000657118
-0.000653388
-0.000637897
-0.000606637
-0.000554334
-0.000482877
-0.000407955
-0.000357381
-0.000386544
-0.000530259
-0.000603689
-0.000619908
-0.000632593
-0.000647685
-0.000653586
-0.000646941
-0.000628084
-0.000593842
-0.000539904
-0.000468384
-0.000393427
-0.000341494
-0.000380141
-0.000527112
-0.00060407
-0.000620443
-0.000631331
-0.000644706
-0.000648635
-0.000639328
-0.000617566
-0.000581102
-0.000526405
-0.000455328
-0.000380459
-0.000327425
-0.000372063
-0.000522004
-0.000602587
-0.00061942
-0.000628665
-0.000640555
-0.000642928
-0.000631639
-0.000607899
-0.000570254
-0.000515659
-0.000445361
-0.000370694
-0.000317215
-0.000363307
-0.0005157
-0.000599539
-0.00061713
-0.000625268
-0.000636163
-0.000637679
-0.000625358
-0.000600721
-0.000562864
-0.000508885
-0.000439426
-0.000364978
-0.00031149
-0.000355965
-0.000509795
-0.000595861
-0.000614361
-0.000622249
-0.000632856
-0.000634282
-0.000621798
-0.000597088
-0.000559521
-0.00050614
-0.00043719
-0.000362769
-0.000309323
-0.000352291
-0.000506526
-0.000593191
-0.000612292
-0.000620832
-0.00063201
-0.000633902
-0.000621739
-0.00059727
-0.000559889
-0.000506585
-0.000437494
-0.000362777
-0.000309186
-0.000353246
-0.000506754
-0.000592374
-0.000611658
-0.000621555
-0.000633978
-0.000636707
-0.000625153
-0.000601057
-0.000563657
-0.000509859
-0.000439976
-0.000364608
-0.000310625
-0.000357923
-0.000509409
-0.000592562
-0.000611757
-0.000623467
-0.00063762
-0.000641698
-0.000631333
-0.000608099
-0.000570867
-0.000516365
-0.000445264
-0.000369
-0.000314556
-0.00036453
-0.000512912
-0.000592504
-0.000611439
-0.000625261
-0.00064156
-0.000647601
-0.000639238
-0.000617705
-0.000581279
-0.00052633
-0.000453919
-0.000376707
-0.000321929
-0.000371153
-0.000515936
-0.000591408
-0.000609983
-0.000626019
-0.000644773
-0.000653283
-0.000647713
-0.000628847
-0.000594165
-0.000539409
-0.000465868
-0.000387659
-0.000332867
-0.000376895
-0.000517719
-0.000588969
-0.000607207
-0.000625267
-0.000646498
-0.000657811
-0.000655664
-0.000640319
-0.000608392
-0.000554728
-0.000480447
-0.000401102
-0.00034642
-0.000381513
-0.000517908
-0.000585126
-0.000603189
-0.000623041
-0.000646563
-0.000660795
-0.000662226
-0.000650875
-0.000622571
-0.000571041
-0.000496683
-0.000416144
-0.000361116
-0.00038467
-0.000516168
-0.000579942
-0.000598326
-0.000620017
-0.000645499
-0.00066223
-0.000667001
-0.000659634
-0.00063541
-0.000586916
-0.000513352
-0.000431868
-0.000376011
-0.000385649
-0.000512291
-0.000573667
-0.000593218
-0.000616997
-0.000644138
-0.00066275
-0.000670274
-0.000666316
-0.000646
-0.000600959
-0.000529005
-0.000447208
-0.000390586
-0.000383519
-0.000506467
-0.000566775
-0.000588326
-0.000614575
-0.000643398
-0.000663371
-0.000672666
-0.000671191
-0.000654024
-0.000612185
-0.000542271
-0.000460933
-0.000404232
-0.000377926
-0.000499282
-0.000559998
-0.000584141
-0.000613112
-0.000643667
-0.000664681
-0.000674946
-0.000674889
-0.000659778
-0.000620328
-0.000552315
-0.000471973
-0.000415967
-0.000369965
-0.000491959
-0.000554357
-0.000581075
-0.000612428
-0.000644608
-0.000666515
-0.000677268
-0.000677894
-0.000663912
-0.000625852
-0.000559086
-0.00047976
-0.000424806
-0.000364255
-0.000487221
-0.00055108
-0.00057933
-0.000612042
-0.000645357
-0.000667975
-0.00067909
-0.000680131
-0.000666746
-0.000629304
-0.000563039
-0.000484288
-0.00043026
-0.00036629
-0.000488338
-0.000551478
-0.000579348
-0.000611924
-0.000645262
-0.000668068
-0.000679472
-0.000680828
-0.000667659
-0.000630338
-0.000564133
-0.000485527
-0.000431995
-0.000373988
-0.000494526
-0.000555523
-0.000581413
-0.000612427
-0.000644606
-0.000666911
-0.000678299
-0.000679596
-0.000665973
-0.000628073
-0.000561473
-0.000482708
-0.000429079
-0.000381935
-0.0005026
-0.000562157
-0.000585448
-0.00061394
-0.000644304
-0.000665559
-0.000676366
-0.000676835
-0.000661677
-0.000622016
-0.0005542
-0.000474915
-0.000420722
-0.000387679
-0.000510699
-0.000570238
-0.000591001
-0.000616659
-0.000645018
-0.000664865
-0.000674351
-0.000672947
-0.000655141
-0.000612466
-0.000542475
-0.000462444
-0.000407875
-0.000390669
-0.000517704
-0.000578555
-0.000597342
-0.000620365
-0.000646767
-0.000664905
-0.000672285
-0.000668005
-0.000646604
-0.000600087
-0.000527537
-0.00044703
-0.000392823
-0.000391062
-0.000522879
-0.000586103
-0.000603702
-0.000624521
-0.000649009
-0.000665026
-0.000669493
-0.000661557
-0.00063596
-0.000585516
-0.000510893
-0.000430625
-0.000377381
-0.000389196
-0.000525844
-0.000592285
-0.000609443
-0.000628383
-0.000650823
-0.0006642
-0.000665126
-0.000653027
-0.000623148
-0.000569404
-0.000493768
-0.000414398
-0.000362048
-0.000385312
-0.000526472
-0.000596781
-0.00061396
-0.000631027
-0.000651158
-0.000661512
-0.000658609
-0.000642279
-0.000608583
-0.000552622
-0.00047708
-0.000398843
-0.000346663
-0.000379525
-0.000524833
-0.000599386
-0.000616754
-0.000631678
-0.000649294
-0.000656668
-0.000650067
-0.000629919
-0.000593291
-0.000536307
-0.000461687
-0.000384475
-0.000331683
-0.000372041
-0.000521138
-0.000600011
-0.000617638
-0.000630198
-0.000645322
-0.000650045
-0.000640355
-0.000617258
-0.000578818
-0.000521858
-0.000448633
-0.000372278
-0.000318814
-0.000363595
-0.000516093
-0.000598892
-0.000616755
-0.000627058
-0.000640027
-0.000642702
-0.000630858
-0.000605971
-0.000566855
-0.000510688
-0.000439007
-0.000363391
-0.000309755
-0.000356236
-0.000511095
-0.000596608
-0.000614736
-0.000623442
-0.00063481
-0.000636193
-0.000623225
-0.000597667
-0.000558735
-0.000503681
-0.00043336
-0.000358314
-0.000304663
-0.000353083
-0.000508772
-0.000594708
-0.0006127
-0.000620816
-0.000631461
-0.000632244
-0.000618882
-0.000593289
-0.000554796
-0.000500603
-0.000431133
-0.000356406
-0.00030236
-0.000528536
-0.000560244
-0.00059124
-0.000610294
-0.000620846
-0.00062587
-0.000623501
-0.000613113
-0.000596165
-0.000575809
-0.000554408
-0.0005309
-0.000493102
-0.000452325
-0.000526111
-0.000562329
-0.000593533
-0.000615309
-0.000629615
-0.000638045
-0.000638392
-0.000629399
-0.000612757
-0.000591143
-0.00056736
-0.000535169
-0.000484827
-0.000432679
-0.000526971
-0.000562961
-0.000593117
-0.000616675
-0.000633927
-0.000645021
-0.000647746
-0.000641143
-0.000626054
-0.000602521
-0.000569403
-0.000524727
-0.00047079
-0.000421366
-0.000526772
-0.000562633
-0.000591918
-0.000616504
-0.000635771
-0.000649072
-0.000654117
-0.000649787
-0.000636406
-0.000613495
-0.000578877
-0.00053136
-0.000475691
-0.000427708
-0.000526317
-0.000561624
-0.000589982
-0.000615304
-0.000635923
-0.000650821
-0.000657772
-0.000655829
-0.000645238
-0.000625069
-0.000592078
-0.000543859
-0.00048635
-0.000438948
-0.000525574
-0.000559925
-0.000587716
-0.000613827
-0.00063549
-0.000651594
-0.000660196
-0.000660499
-0.000652791
-0.000635708
-0.00060483
-0.000556455
-0.00049763
-0.00045066
-0.000523936
-0.000557324
-0.00058544
-0.000612496
-0.000635063
-0.000652156
-0.000662164
-0.000664481
-0.000659312
-0.000644903
-0.000615797
-0.000567368
-0.000507692
-0.000461031
-0.000521316
-0.000553933
-0.000583031
-0.000611242
-0.000634627
-0.000652508
-0.000663704
-0.000667781
-0.000664701
-0.000652317
-0.000624454
-0.000575976
-0.000515756
-0.000469507
-0.000518114
-0.000550427
-0.000580497
-0.000609903
-0.000634052
-0.000652545
-0.00066465
-0.000670138
-0.000668707
-0.000657855
-0.000630868
-0.000582322
-0.000521622
-0.000475769
-0.000515438
-0.000547617
-0.000578232
-0.000608524
-0.000633353
-0.0006523
-0.000665019
-0.000671552
-0.000671375
-0.000661624
-0.000635239
-0.000586531
-0.000525398
-0.000479788
-0.000514469
-0.000546132
-0.00057676
-0.000607447
-0.000632742
-0.00065196
-0.000665066
-0.00067227
-0.000672864
-0.00066377
-0.000637722
-0.000588794
-0.000527247
-0.000481702
-0.000515173
-0.000546271
-0.000576489
-0.000607068
-0.000632428
-0.000651729
-0.000664976
-0.000672424
-0.000673306
-0.000664478
-0.000638461
-0.000589262
-0.000527338
-0.00048158
-0.000516885
-0.000547889
-0.000577562
-0.00060757
-0.000632555
-0.000651682
-0.000664808
-0.000672137
-0.00067292
-0.000663911
-0.000637553
-0.000587926
-0.0005256
-0.000479485
-0.000519091
-0.000550664
-0.000579857
-0.000608908
-0.000633134
-0.000651807
-0.000664585
-0.000671522
-0.000671846
-0.000662209
-0.000635068
-0.000584717
-0.000521888
-0.000475455
-0.000521475
-0.000554154
-0.000583025
-0.000610947
-0.000634161
-0.00065215
-0.000664375
-0.000670667
-0.000670183
-0.000659461
-0.000631021
-0.000579566
-0.000516204
-0.000469514
-0.000523867
-0.000557899
-0.000586643
-0.000613546
-0.000635708
-0.000652857
-0.000664285
-0.000669614
-0.000667914
-0.000655571
-0.000625274
-0.000572411
-0.000508567
-0.000461701
-0.000526151
-0.000561607
-0.000590404
-0.000616567
-0.000637771
-0.000653954
-0.00066428
-0.000668219
-0.000664767
-0.000650189
-0.000617538
-0.000563198
-0.00049897
-0.000452012
-0.000528126
-0.00056493
-0.000594094
-0.000619747
-0.000640005
-0.000655031
-0.000663889
-0.000665962
-0.000660162
-0.000642798
-0.000607533
-0.000551925
-0.000487489
-0.000440347
-0.00052931
-0.000567418
-0.000597356
-0.00062251
-0.000641701
-0.000655309
-0.000662332
-0.00066206
-0.000653434
-0.000633
-0.000595256
-0.000538865
-0.00047458
-0.000426766
-0.00052915
-0.000568576
-0.000599545
-0.000624199
-0.00064209
-0.00065398
-0.000658884
-0.000655983
-0.000644357
-0.00062098
-0.000581332
-0.000524826
-0.000461106
-0.000412323
-0.000527222
-0.000567943
-0.000600165
-0.000624331
-0.000640731
-0.00065078
-0.000653465
-0.000647962
-0.00063358
-0.000607877
-0.000567272
-0.000511368
-0.000448564
-0.00039927
-0.000523493
-0.000565491
-0.000599097
-0.000622858
-0.000637805
-0.000646064
-0.000646794
-0.000639153
-0.000622718
-0.000595673
-0.000555141
-0.000500458
-0.000438785
-0.000389699
-0.000518595
-0.000561729
-0.000596715
-0.000620258
-0.000634106
-0.000641025
-0.000640404
-0.00063142
-0.000613896
-0.000586522
-0.000546757
-0.000493519
-0.00043291
-0.000384353
-0.000513746
-0.000557613
-0.000593723
-0.000617451
-0.000630939
-0.000637345
-0.000636214
-0.000626752
-0.000608968
-0.000581851
-0.000542906
-0.00049069
-0.000430675
-0.000382468
-0.000510464
-0.000554493
-0.000591156
-0.000615537
-0.000629688
-0.000636608
-0.000635795
-0.000626502
-0.000608869
-0.000581973
-0.000543256
-0.000491122
-0.000430967
-0.000382664
-0.000509758
-0.000553237
-0.000589787
-0.000615121
-0.000630771
-0.00063912
-0.000639362
-0.000630752
-0.000613501
-0.000586644
-0.000547492
-0.000494473
-0.000433422
-0.000384557
-0.000511094
-0.000553532
-0.000589261
-0.000615573
-0.000633204
-0.00064367
-0.000645687
-0.000638429
-0.000622081
-0.000595476
-0.000555648
-0.000501139
-0.000438652
-0.000388963
-0.000513176
-0.000554225
-0.000588536
-0.000615702
-0.000635572
-0.000648639
-0.000653104
-0.000648014
-0.00063338
-0.000607665
-0.000567446
-0.000511341
-0.0004472
-0.00039665
-0.000514825
-0.000554363
-0.000586944
-0.00061471
-0.000636785
-0.000652614
-0.000660044
-0.000657888
-0.000645848
-0.000621919
-0.000582029
-0.000524634
-0.000458793
-0.000407679
-0.000515293
-0.000553263
-0.000584138
-0.000612255
-0.000636184
-0.000654715
-0.000665273
-0.000666527
-0.000657809
-0.000636616
-0.000598047
-0.000539981
-0.000472487
-0.000421112
-0.000514504
-0.000550763
-0.000580084
-0.000608498
-0.000633905
-0.00065469
-0.00066816
-0.000672859
-0.000667824
-0.000650114
-0.000613914
-0.000556059
-0.00048721
-0.000435391
-0.000512526
-0.000546916
-0.000575198
-0.000604093
-0.000630716
-0.000653192
-0.000669003
-0.000676672
-0.000675139
-0.000661187
-0.000628116
-0.00057146
-0.000501933
-0.000449265
-0.00050941
-0.000541882
-0.000569869
-0.000599724
-0.000627715
-0.000651536
-0.000668926
-0.000678752
-0.000679964
-0.00066933
-0.00063954
-0.000584772
-0.000515352
-0.000461976
-0.000505154
-0.000536049
-0.000564278
-0.000595841
-0.000625723
-0.000650825
-0.000669143
-0.000680164
-0.000683071
-0.000674801
-0.000647763
-0.000595022
-0.000526188
-0.000472873
-0.00049982
-0.000529893
-0.000558838
-0.000592619
-0.00062483
-0.00065131
-0.00067019
-0.000681656
-0.000685315
-0.000678326
-0.000653086
-0.000601945
-0.000533923
-0.000481283
-0.00049374
-0.000524185
-0.000554242
-0.000590081
-0.000624569
-0.000652471
-0.000671812
-0.000683329
-0.000687252
-0.000680801
-0.000656421
-0.000606142
-0.000538773
-0.00048703
-0.000489519
-0.000520651
-0.000551495
-0.000588445
-0.000624378
-0.000653389
-0.000673178
-0.00068477
-0.000688886
-0.000682756
-0.000658723
-0.000608663
-0.000541497
-0.000490487
-0.000490398
-0.000521205
-0.000551728
-0.000588448
-0.000624269
-0.000653422
-0.000673485
-0.000685302
-0.000689613
-0.000683665
-0.000659747
-0.000609728
-0.000542592
-0.00049196
-0.000495465
-0.000525601
-0.000555065
-0.000590389
-0.000624606
-0.000652792
-0.000672745
-0.000684728
-0.000689006
-0.00068279
-0.000658539
-0.000608394
-0.000541344
-0.000490603
-0.000501933
-0.000532118
-0.000560627
-0.000593859
-0.000625677
-0.000652252
-0.000671626
-0.000683469
-0.000687343
-0.000680136
-0.000654594
-0.000603552
-0.000536283
-0.000484992
-0.000508478
-0.000539515
-0.000567389
-0.000598413
-0.000627726
-0.000652518
-0.00067089
-0.000682007
-0.000684858
-0.000675916
-0.000647957
-0.000594858
-0.000526845
-0.000475043
-0.000514272
-0.000546857
-0.000574507
-0.000603703
-0.000630852
-0.000653917
-0.000670887
-0.000680573
-0.000681603
-0.000670082
-0.000638806
-0.000582916
-0.000513984
-0.000462281
-0.00051882
-0.000553313
-0.000581281
-0.000609323
-0.000634805
-0.000656208
-0.000671343
-0.000678818
-0.000677102
-0.000662187
-0.000627204
-0.000568729
-0.000499346
-0.000448381
-0.000521868
-0.000558306
-0.0005872
-0.000614693
-0.000638847
-0.000658461
-0.000671234
-0.000675744
-0.000670478
-0.000651661
-0.000613173
-0.000553102
-0.000484121
-0.000434094
-0.00052325
-0.000561511
-0.000591847
-0.000619024
-0.000641768
-0.000659211
-0.000669114
-0.000670092
-0.000660921
-0.000638307
-0.000597179
-0.000536806
-0.000469039
-0.000419352
-0.000522859
-0.000562786
-0.000594794
-0.000621577
-0.000642472
-0.000657277
-0.000663972
-0.000661313
-0.000648483
-0.000622817
-0.000580278
-0.000520738
-0.000454633
-0.000404786
-0.000520712
-0.000562147
-0.000595868
-0.000622004
-0.000640644
-0.000652544
-0.000656091
-0.000650222
-0.000634481
-0.000606859
-0.000564147
-0.000506254
-0.000441969
-0.000392165
-0.00051725
-0.000560125
-0.000595372
-0.000620577
-0.000636832
-0.000645981
-0.00064689
-0.000638639
-0.000621039
-0.000592628
-0.000550723
-0.000494903
-0.000432406
-0.000383194
-0.00051364
-0.000557545
-0.000593904
-0.000618202
-0.000632407
-0.000639433
-0.000638577
-0.00062897
-0.000610573
-0.000582265
-0.000541611
-0.000487743
-0.000426723
-0.000378097
-0.000511269
-0.000555465
-0.000592345
-0.000616007
-0.000628927
-0.000634794
-0.000633177
-0.000623146
-0.000604691
-0.000576827
-0.000537191
-0.000484577
-0.000424475
-0.00037586
-0.000579156
-0.000594126
-0.000610521
-0.000625927
-0.000635795
-0.000639803
-0.000637968
-0.000629846
-0.000615958
-0.000598176
-0.000578245
-0.000554326
-0.000518594
-0.000485735
-0.00058218
-0.000599269
-0.000614873
-0.000632544
-0.000645177
-0.000651174
-0.000650354
-0.000642702
-0.000628906
-0.000610977
-0.000591249
-0.000563867
-0.000521181
-0.000477515
-0.000583271
-0.000599919
-0.000614821
-0.000634077
-0.000649567
-0.000658463
-0.000660099
-0.000653908
-0.000640524
-0.000620439
-0.000593366
-0.000557549
-0.000514028
-0.000472999
-0.000581369
-0.000598193
-0.000613215
-0.000633385
-0.000650269
-0.000661224
-0.000664583
-0.000659852
-0.000647488
-0.000627876
-0.000599981
-0.000562728
-0.000518878
-0.000479449
-0.000578111
-0.000595302
-0.000610838
-0.000631771
-0.000649457
-0.000661685
-0.000666595
-0.000663653
-0.000653627
-0.000636678
-0.000610926
-0.000573796
-0.000528403
-0.000488456
-0.000574358
-0.000591654
-0.000607894
-0.000629648
-0.000648174
-0.000661488
-0.000667876
-0.000666954
-0.000659572
-0.000645608
-0.000622013
-0.000584612
-0.000537109
-0.000496816
-0.00057014
-0.000587352
-0.000604507
-0.000627166
-0.000646627
-0.000661065
-0.000668925
-0.000670049
-0.000665092
-0.000653644
-0.000631361
-0.000593194
-0.000543791
-0.000503713
-0.000565242
-0.000582363
-0.000600751
-0.000624417
-0.000644805
-0.000660237
-0.000669478
-0.000672533
-0.000669699
-0.000659992
-0.000638315
-0.000599287
-0.000548335
-0.000509117
-0.000559985
-0.000577266
-0.000596821
-0.000621588
-0.000642822
-0.000659025
-0.000669411
-0.000674107
-0.000672961
-0.000664501
-0.000643209
-0.00060346
-0.000551196
-0.000512957
-0.000555434
-0.000573003
-0.000593278
-0.000619047
-0.000641038
-0.00065775
-0.000668949
-0.000674867
-0.000675025
-0.000667567
-0.000646616
-0.000606196
-0.000552902
-0.000515254
-0.000552861
-0.000570476
-0.00059095
-0.000617266
-0.000639736
-0.000656799
-0.000668518
-0.000675197
-0.000676245
-0.000669533
-0.000648806
-0.000607809
-0.000553736
-0.000516277
-0.000552697
-0.000570148
-0.000590457
-0.000616685
-0.000639154
-0.000656315
-0.000668263
-0.000675306
-0.00067684