/*--------------------------------*- C++ -*----------------------------------*\
| =========                 |                                                 |
| \\      /  F ield         | OpenFOAM: The Open Source CFD Toolbox           |
|  \\    /   O peration     | Version:  5.0                                   |
|   \\  /    A nd           | Web:      www.OpenFOAM.org                      |
|    \\/     M anipulation  |                                                 |
\*---------------------------------------------------------------------------*/
FoamFile
{
    version     2.0;
    format      ascii;
    class       volScalarField;
    location    "350";
    object      p;
}
// * * * * * * * * * * * * * * * * * * * * * * * * * * * * * * * * * * * * * //

dimensions      [0 2 -2 0 0 0 0];

internalField   nonuniform List<scalar> 
1568
(
3.75901e-17
3.99214e-16
7.2372e-16
8.95728e-16
1.05962e-15
1.21496e-15
1.32911e-15
1.43784e-15
1.54041e-15
1.63341e-15
1.72145e-15
1.80787e-15
1.8933e-15
1.97742e-15
2.06192e-15
2.1477e-15
2.23462e-15
2.32327e-15
2.41367e-15
2.50623e-15
2.60044e-15
2.69683e-15
2.79101e-15
2.86164e-15
2.91539e-15
2.9862e-15
3.10028e-15
3.26585e-15
3.45289e-15
3.61911e-15
3.7338e-15
3.80558e-15
3.85908e-15
3.92951e-15
4.02339e-15
4.12015e-15
4.2137e-15
4.30681e-15
4.39697e-15
4.4857e-15
4.57255e-15
4.65861e-15
4.7428e-15
4.82748e-15
4.91223e-15
4.99869e-15
5.08762e-15
5.18162e-15
5.28121e-15
5.39021e-15
5.51362e-15
5.65472e-15
5.81733e-15
6.00919e-15
6.31658e-15
6.66317e-15
2.30258e-16
3.24074e-16
1.04495e-15
1.02148e-15
1.01726e-15
1.34813e-15
1.42216e-15
1.50448e-15
1.63335e-15
1.73038e-15
1.8098e-15
1.89341e-15
1.98068e-15
2.06144e-15
2.14482e-15
2.22831e-15
2.31101e-15
2.39592e-15
2.48194e-15
2.56986e-15
2.65806e-15
2.75007e-15
2.84385e-15
2.95138e-15
3.05515e-15
3.15603e-15
3.25449e-15
3.33588e-15
3.38375e-15
3.47118e-15
3.5684e-15
3.66637e-15
3.76215e-15
3.87349e-15
3.96659e-15
4.06368e-15
4.14625e-15
4.23958e-15
4.32195e-15
4.40732e-15
4.49133e-15
4.5802e-15
4.65923e-15
4.74246e-15
4.82395e-15
4.91166e-15
5.00026e-15
5.0959e-15
5.19265e-15
5.3098e-15
5.44309e-15
5.57602e-15
5.74424e-15
5.88777e-15
6.27565e-15
6.49287e-15
4.7122e-16
7.96309e-16
6.4775e-16
1.09344e-15
1.3025e-15
1.40834e-15
1.48453e-15
1.64052e-15
1.73794e-15
1.79369e-15
1.91163e-15
2.00809e-15
2.07157e-15
2.15258e-15
2.23615e-15
2.30688e-15
2.38615e-15
2.46556e-15
2.54681e-15
2.62445e-15
2.7068e-15
2.78968e-15
2.87793e-15
2.96084e-15
3.04309e-15
3.11427e-15
3.20561e-15
3.30706e-15
3.41393e-15
3.50819e-15
3.59907e-15
3.68005e-15
3.7755e-15
3.85743e-15
3.93909e-15
4.01672e-15
4.10598e-15
4.17804e-15
4.26054e-15
4.34114e-15
4.41227e-15
4.47719e-15
4.56346e-15
4.64047e-15
4.72432e-15
4.80805e-15
4.89609e-15
4.98942e-15
5.09455e-15
5.20599e-15
5.31527e-15
5.42294e-15
5.68129e-15
5.79169e-15
6.06356e-15
6.27611e-15
6.62338e-16
8.84932e-16
1.22933e-15
1.24602e-15
1.44592e-15
1.55765e-15
1.63991e-15
1.77783e-15
1.88806e-15
1.9706e-15
2.04792e-15
2.1214e-15
2.20258e-15
2.28536e-15
2.35182e-15
2.42861e-15
2.50306e-15
2.57273e-15
2.64119e-15
2.71991e-15
2.7924e-15
2.86543e-15
2.93527e-15
3.0101e-15
3.07887e-15
3.15517e-15
3.23339e-15
3.31974e-15
3.40437e-15
3.49261e-15
3.57177e-15
3.63641e-15
3.69805e-15
3.76836e-15
3.8467e-15
3.91998e-15
3.99423e-15
4.07087e-15
4.14031e-15
4.21502e-15
4.29408e-15
4.37572e-15
4.4474e-15
4.52107e-15
4.59825e-15
4.67842e-15
4.75838e-15
4.85564e-15
4.9528e-15
5.0442e-15
5.1991e-15
5.34316e-15
5.4377e-15
5.55052e-15
5.92149e-15
6.06869e-15
8.78128e-16
9.4345e-16
1.29039e-15
1.37207e-15
1.53567e-15
1.64985e-15
1.76602e-15
1.87566e-15
1.95248e-15
2.04264e-15
2.12629e-15
2.20335e-15
2.27642e-15
2.34308e-15
2.41038e-15
2.48098e-15
2.54795e-15
2.61716e-15
2.68616e-15
2.75431e-15
2.82213e-15
2.89201e-15
2.96293e-15
3.03554e-15
3.10498e-15
3.17817e-15
3.25108e-15
3.3226e-15
3.39399e-15
3.46791e-15
3.54322e-15
3.61921e-15
3.69147e-15
3.76317e-15
3.83641e-15
3.90575e-15
3.9705e-15
4.04017e-15
4.10792e-15
4.17318e-15
4.2374e-15
4.30341e-15
4.37006e-15
4.44206e-15
4.51435e-15
4.59207e-15
4.67596e-15
4.75709e-15
4.84342e-15
4.96656e-15
5.06892e-15
5.12767e-15
5.35487e-15
5.51824e-15
5.66694e-15
5.83769e-15
1.12705e-15
1.28137e-15
1.46738e-15
1.60353e-15
1.69765e-15
1.79563e-15
1.92767e-15
2.02063e-15
2.08356e-15
2.16883e-15
2.25014e-15
2.31929e-15
2.38419e-15
2.45133e-15
2.51832e-15
2.57784e-15
2.63696e-15
2.6985e-15
2.76075e-15
2.81935e-15
2.88079e-15
2.94452e-15
3.00718e-15
3.06918e-15
3.13278e-15
3.19469e-15
3.26021e-15
3.32771e-15
3.39433e-15
3.45986e-15
3.52349e-15
3.587e-15
3.65298e-15
3.71562e-15
3.77489e-15
3.83666e-15
3.89905e-15
3.9601e-15
4.02215e-15
4.08439e-15
4.14529e-15
4.20744e-15
4.27297e-15
4.33677e-15
4.40519e-15
4.47572e-15
4.5449e-15
4.63229e-15
4.72386e-15
4.78632e-15
4.90862e-15
5.064e-15
5.13663e-15
5.18432e-15
5.48935e-15
5.60645e-15
1.36904e-15
1.50108e-15
1.66101e-15
1.76313e-15
1.87743e-15
1.98827e-15
2.07726e-15
2.15174e-15
2.23499e-15
2.3123e-15
2.37728e-15
2.43726e-15
2.49815e-15
2.5581e-15
2.61425e-15
2.67031e-15
2.72714e-15
2.78138e-15
2.83502e-15
2.89072e-15
2.94597e-15
2.999e-15
3.05275e-15
3.10766e-15
3.16346e-15
3.21915e-15
3.27584e-15
3.33247e-15
3.39001e-15
3.44783e-15
3.50259e-15
3.55576e-15
3.61048e-15
3.66496e-15
3.71873e-15
3.77346e-15
3.82993e-15
3.88359e-15
3.93718e-15
3.99255e-15
4.0493e-15
4.10614e-15
4.16347e-15
4.22175e-15
4.28357e-15
4.34823e-15
4.41517e-15
4.48736e-15
4.56167e-15
4.65634e-15
4.75635e-15
4.80056e-15
4.96529e-15
5.11462e-15
5.23495e-15
5.35522e-15
1.61803e-15
1.70898e-15
1.8616e-15
1.95324e-15
2.06241e-15
2.14852e-15
2.21683e-15
2.28914e-15
2.36765e-15
2.42741e-15
2.48596e-15
2.54493e-15
2.60081e-15
2.65211e-15
2.70153e-15
2.75163e-15
2.80097e-15
2.84886e-15
2.89674e-15
2.94491e-15
2.99236e-15
3.04054e-15
3.08902e-15
3.13783e-15
3.18622e-15
3.23583e-15
3.28509e-15
3.33463e-15
3.38487e-15
3.43448e-15
3.48576e-15
3.53668e-15
3.58415e-15
3.63257e-15
3.68297e-15
3.73102e-15
3.77761e-15
3.82564e-15
3.87334e-15
3.92124e-15
3.96919e-15
4.01752e-15
4.06755e-15
4.12001e-15
4.17447e-15
4.23123e-15
4.28862e-15
4.35722e-15
4.42937e-15
4.48859e-15
4.57758e-15
4.68576e-15
4.76467e-15
4.79494e-15
5.01394e-15
5.1049e-15
1.87739e-15
1.95939e-15
2.10151e-15
2.17211e-15
2.25062e-15
2.31196e-15
2.38747e-15
2.45619e-15
2.51255e-15
2.5668e-15
2.61942e-15
2.6662e-15
2.71423e-15
2.76019e-15
2.80341e-15
2.84559e-15
2.8865e-15
2.92805e-15
2.96932e-15
3.00894e-15
3.04924e-15
3.09179e-15
3.13234e-15
3.17304e-15
3.21451e-15
3.25602e-15
3.29752e-15
3.33969e-15
3.38172e-15
3.42292e-15
3.46496e-15
3.50676e-15
3.54839e-15
3.58932e-15
3.62998e-15
3.67038e-15
3.71074e-15
3.7515e-15
3.7928e-15
3.83404e-15
3.87544e-15
3.91843e-15
3.96274e-15
4.00702e-15
4.0532e-15
4.10363e-15
4.15607e-15
4.21046e-15
4.26555e-15
4.33409e-15
4.4143e-15
4.45011e-15
4.56266e-15
4.66082e-15
4.75744e-15
4.8424e-15
2.14167e-15
2.2112e-15
2.31627e-15
2.37257e-15
2.44326e-15
2.49767e-15
2.5662e-15
2.61809e-15
2.65842e-15
2.70765e-15
2.75378e-15
2.79269e-15
2.83089e-15
2.8684e-15
2.90355e-15
2.93959e-15
2.97399e-15
3.0075e-15
3.0407e-15
3.07579e-15
3.10853e-15
3.14077e-15
3.1743e-15
3.2085e-15
3.24182e-15
3.27544e-15
3.30963e-15
3.3439e-15
3.37765e-15
3.41225e-15
3.44544e-15
3.47849e-15
3.51209e-15
3.54588e-15
3.57885e-15
3.61167e-15
3.64573e-15
3.67952e-15
3.7129e-15
3.74658e-15
3.78113e-15
3.81667e-15
3.85242e-15
3.88957e-15
3.929e-15
3.96982e-15
4.01002e-15
4.0595e-15
4.1115e-15
4.15304e-15
4.21776e-15
4.28125e-15
4.35539e-15
4.37987e-15
4.51584e-15
4.57944e-15
2.40891e-15
2.46224e-15
2.5374e-15
2.58957e-15
2.64714e-15
2.68699e-15
2.73583e-15
2.7745e-15
2.81233e-15
2.85052e-15
2.88221e-15
2.91552e-15
2.94665e-15
2.97502e-15
3.00307e-15
3.03115e-15
3.05874e-15
3.08507e-15
3.11107e-15
3.13684e-15
3.16372e-15
3.18905e-15
3.21538e-15
3.24075e-15
3.26664e-15
3.29286e-15
3.32063e-15
3.34767e-15
3.37474e-15
3.40147e-15
3.42717e-15
3.45353e-15
3.48001e-15
3.50604e-15
3.53224e-15
3.55835e-15
3.58426e-15
3.61009e-15
3.63619e-15
3.66283e-15
3.68979e-15
3.71685e-15
3.74475e-15
3.77427e-15
3.80517e-15
3.83639e-15
3.87035e-15
3.90866e-15
3.94264e-15
3.98216e-15
4.04478e-15
4.06762e-15
4.12239e-15
4.18488e-15
4.25993e-15
4.30974e-15
2.68019e-15
2.71983e-15
2.77439e-15
2.80985e-15
2.8517e-15
2.87716e-15
2.91331e-15
2.94174e-15
2.9685e-15
2.99527e-15
3.01967e-15
3.04077e-15
3.06196e-15
3.08558e-15
3.10737e-15
3.12554e-15
3.14432e-15
3.16372e-15
3.18343e-15
3.20083e-15
3.22e-15
3.23893e-15
3.25816e-15
3.27725e-15
3.29757e-15
3.3159e-15
3.33299e-15
3.34926e-15
3.36744e-15
3.38698e-15
3.40735e-15
3.42678e-15
3.44508e-15
3.4633e-15
3.48181e-15
3.50139e-15
3.51945e-15
3.53772e-15
3.55679e-15
3.57588e-15
3.59482e-15
3.6149e-15
3.63555e-15
3.65789e-15
3.67975e-15
3.70185e-15
3.72535e-15
3.75096e-15
3.7822e-15
3.80703e-15
3.83612e-15
3.86589e-15
3.92908e-15
3.94034e-15
3.99746e-15
4.03827e-15
2.953e-15
2.97779e-15
3.01154e-15
3.03093e-15
3.05642e-15
3.07007e-15
3.09525e-15
3.11287e-15
3.12608e-15
3.1392e-15
3.16726e-15
3.18115e-15
3.18118e-15
3.19885e-15
3.21049e-15
3.22143e-15
3.23326e-15
3.24478e-15
3.25597e-15
3.26714e-15
3.27748e-15
3.28902e-15
3.29905e-15
3.30878e-15
3.31875e-15
3.33038e-15
3.34308e-15
3.3573e-15
3.36946e-15
3.37872e-15
3.38835e-15
3.39911e-15
3.41012e-15
3.42175e-15
3.43258e-15
3.44241e-15
3.45388e-15
3.46535e-15
3.47635e-15
3.48749e-15
3.49882e-15
3.51053e-15
3.52242e-15
3.53807e-15
3.53991e-15
3.55492e-15
3.57938e-15
3.59649e-15
3.60728e-15
3.6159e-15
3.66257e-15
3.66919e-15
3.6725e-15
3.69713e-15
3.75059e-15
3.76558e-15
3.22763e-15
3.23647e-15
3.2458e-15
3.25427e-15
3.26495e-15
3.2655e-15
3.27699e-15
3.28277e-15
3.28814e-15
3.2925e-15
3.3005e-15
3.30244e-15
3.30372e-15
3.31447e-15
3.31376e-15
3.31688e-15
3.3215e-15
3.32444e-15
3.32709e-15
3.33129e-15
3.33501e-15
3.33832e-15
3.34183e-15
3.34661e-15
3.34987e-15
3.35347e-15
3.35554e-15
3.35762e-15
3.3608e-15
3.36517e-15
3.36896e-15
3.37284e-15
3.37587e-15
3.37906e-15
3.38333e-15
3.3859e-15
3.39001e-15
3.39321e-15
3.39621e-15
3.40018e-15
3.40375e-15
3.40574e-15
3.40685e-15
3.41646e-15
3.41745e-15
3.42094e-15
3.4262e-15
3.42952e-15
3.44028e-15
3.44934e-15
3.44804e-15
3.43238e-15
3.49343e-15
3.48446e-15
3.47521e-15
3.4893e-15
3.5023e-15
3.49677e-15
3.48422e-15
3.47771e-15
3.47497e-15
3.46089e-15
3.45916e-15
3.45167e-15
3.44267e-15
3.44091e-15
3.43146e-15
3.42831e-15
3.42797e-15
3.4166e-15
3.41554e-15
3.41286e-15
3.40826e-15
3.40369e-15
3.40016e-15
3.39647e-15
3.39211e-15
3.38722e-15
3.38381e-15
3.38056e-15
3.37666e-15
3.37189e-15
3.36757e-15
3.36162e-15
3.35676e-15
3.35372e-15
3.35026e-15
3.34572e-15
3.3417e-15
3.33682e-15
3.33284e-15
3.32949e-15
3.32492e-15
3.32025e-15
3.31665e-15
3.31223e-15
3.30802e-15
3.30478e-15
3.30413e-15
3.29319e-15
3.29163e-15
3.28809e-15
3.28023e-15
3.28021e-15
3.26684e-15
3.24946e-15
3.27063e-15
3.25933e-15
3.2275e-15
3.19919e-15
3.23479e-15
3.21605e-15
3.77755e-15
3.761e-15
3.7206e-15
3.69958e-15
3.68464e-15
3.65574e-15
3.64201e-15
3.62277e-15
3.60411e-15
3.59436e-15
3.56673e-15
3.55107e-15
3.55066e-15
3.53289e-15
3.52106e-15
3.50906e-15
3.49648e-15
3.48529e-15
3.47358e-15
3.46103e-15
3.44914e-15
3.43878e-15
3.42566e-15
3.41206e-15
3.39936e-15
3.38782e-15
3.3781e-15
3.36916e-15
3.35766e-15
3.34446e-15
3.33036e-15
3.31838e-15
3.30709e-15
3.29601e-15
3.28292e-15
3.27169e-15
3.25913e-15
3.24823e-15
3.23637e-15
3.22408e-15
3.21165e-15
3.20027e-15
3.18693e-15
3.16967e-15
3.16869e-15
3.15492e-15
3.12556e-15
3.1109e-15
3.10041e-15
3.08921e-15
3.05391e-15
3.00666e-15
3.0564e-15
3.01654e-15
2.95433e-15
2.93876e-15
4.05046e-15
4.01465e-15
3.95546e-15
3.92301e-15
3.89174e-15
3.84754e-15
3.82263e-15
3.79186e-15
3.76182e-15
3.73903e-15
3.71249e-15
3.68942e-15
3.66839e-15
3.6448e-15
3.6238e-15
3.60309e-15
3.58384e-15
3.56388e-15
3.54467e-15
3.52511e-15
3.50638e-15
3.48678e-15
3.46828e-15
3.45024e-15
3.4322e-15
3.41186e-15
3.39044e-15
3.36811e-15
3.34841e-15
3.32934e-15
3.31134e-15
3.29235e-15
3.2726e-15
3.25284e-15
3.23402e-15
3.2147e-15
3.19567e-15
3.17605e-15
3.15648e-15
3.13692e-15
3.11716e-15
3.09694e-15
3.0759e-15
3.05243e-15
3.03084e-15
3.00733e-15
2.98073e-15
2.96261e-15
2.92575e-15
2.88253e-15
2.88563e-15
2.85007e-15
2.76987e-15
2.72078e-15
2.71933e-15
2.66783e-15
4.32306e-15
4.27753e-15
4.18971e-15
4.14103e-15
4.09783e-15
4.0393e-15
4.00122e-15
3.95901e-15
3.91751e-15
3.88328e-15
3.8486e-15
3.81615e-15
3.78529e-15
3.75516e-15
3.72632e-15
3.69876e-15
3.67119e-15
3.64359e-15
3.61678e-15
3.59028e-15
3.5639e-15
3.53608e-15
3.50955e-15
3.48167e-15
3.45473e-15
3.42728e-15
3.40205e-15
3.37449e-15
3.34832e-15
3.31984e-15
3.29341e-15
3.26483e-15
3.23873e-15
3.21069e-15
3.18546e-15
3.15709e-15
3.13147e-15
3.10332e-15
3.07764e-15
3.04922e-15
3.02238e-15
2.99281e-15
2.96577e-15
2.93399e-15
2.90383e-15
2.87306e-15
2.83686e-15
2.79517e-15
2.76718e-15
2.73248e-15
2.66407e-15
2.59011e-15
2.62454e-15
2.55699e-15
2.43321e-15
2.39304e-15
4.59128e-15
4.52481e-15
4.42114e-15
4.35578e-15
4.2998e-15
4.22817e-15
4.17715e-15
4.12356e-15
4.07129e-15
4.02825e-15
3.98331e-15
3.94234e-15
3.90238e-15
3.86629e-15
3.82804e-15
3.79446e-15
3.75693e-15
3.72523e-15
3.68798e-15
3.65687e-15
3.619e-15
3.58885e-15
3.55107e-15
3.52032e-15
3.48153e-15
3.45093e-15
3.41132e-15
3.38091e-15
3.34102e-15
3.31056e-15
3.27017e-15
3.24001e-15
3.20097e-15
3.17126e-15
3.13181e-15
3.10252e-15
3.06393e-15
3.03406e-15
2.99523e-15
2.96481e-15
2.92552e-15
2.89397e-15
2.85369e-15
2.81846e-15
2.77683e-15
2.73613e-15
2.68968e-15
2.6567e-15
2.59193e-15
2.51893e-15
2.51549e-15
2.45121e-15
2.3225e-15
2.24527e-15
2.21095e-15
2.12785e-15
4.85723e-15
4.77882e-15
4.64611e-15
4.56309e-15
4.49441e-15
4.4064e-15
4.34581e-15
4.28115e-15
4.21921e-15
4.16433e-15
4.1131e-15
4.06192e-15
4.01667e-15
3.96971e-15
3.92671e-15
3.88128e-15
3.84129e-15
3.7976e-15
3.75848e-15
3.71445e-15
3.67565e-15
3.6324e-15
3.59256e-15
3.54922e-15
3.50945e-15
3.46556e-15
3.42473e-15
3.38071e-15
3.33936e-15
3.29541e-15
3.25453e-15
3.21166e-15
3.1706e-15
3.12767e-15
3.08677e-15
3.04504e-15
3.00387e-15
2.96258e-15
2.92165e-15
2.8799e-15
2.83757e-15
2.79536e-15
2.75113e-15
2.70545e-15
2.65739e-15
2.61163e-15
2.55758e-15
2.49257e-15
2.43945e-15
2.40694e-15
2.29213e-15
2.16809e-15
2.21414e-15
2.12936e-15
1.92527e-15
1.85831e-15
5.11761e-15
5.02081e-15
4.86523e-15
4.77064e-15
4.69293e-15
4.58534e-15
4.51195e-15
4.43776e-15
4.36601e-15
4.30153e-15
4.24372e-15
4.18236e-15
4.13104e-15
4.0736e-15
4.02921e-15
3.97325e-15
3.93146e-15
3.87314e-15
3.83481e-15
3.77596e-15
3.73937e-15
3.67722e-15
3.64219e-15
3.57871e-15
3.54453e-15
3.47853e-15
3.44545e-15
3.37659e-15
3.34443e-15
3.27523e-15
3.24474e-15
3.17557e-15
3.14632e-15
3.07811e-15
3.04992e-15
2.97952e-15
2.95072e-15
2.88276e-15
2.85293e-15
2.78455e-15
2.75307e-15
2.68425e-15
2.64891e-15
2.58175e-15
2.54359e-15
2.4709e-15
2.41687e-15
2.35437e-15
2.29536e-15
2.16649e-15
2.141e-15
2.10011e-15
1.90741e-15
1.76335e-15
1.72733e-15
1.60383e-15
5.37149e-15
5.25238e-15
5.08765e-15
4.95367e-15
4.87123e-15
4.76188e-15
4.66888e-15
4.58899e-15
4.50697e-15
4.43935e-15
4.36534e-15
4.30655e-15
4.24065e-15
4.18822e-15
4.12081e-15
4.07252e-15
4.00732e-15
3.96369e-15
3.89487e-15
3.85333e-15
3.78252e-15
3.74309e-15
3.67093e-15
3.63068e-15
3.55685e-15
3.51691e-15
3.44086e-15
3.40049e-15
3.32244e-15
3.28249e-15
3.20396e-15
3.1646e-15
3.08755e-15
3.04849e-15
2.97321e-15
2.93793e-15
2.86595e-15
2.82561e-15
2.75446e-15
2.7156e-15
2.64591e-15
2.60413e-15
2.53373e-15
2.48461e-15
2.4095e-15
2.35438e-15
2.28452e-15
2.21383e-15
2.11905e-15
2.07484e-15
1.97635e-15
1.76545e-15
1.80129e-15
1.71135e-15
1.4509e-15
1.3445e-15
5.61829e-15
5.48082e-15
5.28249e-15
5.14331e-15
5.03651e-15
4.91322e-15
4.81334e-15
4.72241e-15
4.6312e-15
4.55541e-15
4.47709e-15
4.41023e-15
4.33482e-15
4.27677e-15
4.20394e-15
4.15252e-15
4.07647e-15
4.02971e-15
3.95178e-15
3.90845e-15
3.82606e-15
3.78629e-15
3.69833e-15
3.66267e-15
3.5711e-15
3.5377e-15
3.44147e-15
3.40928e-15
3.30854e-15
3.27867e-15
3.17618e-15
3.15038e-15
3.04952e-15
3.02587e-15
2.92366e-15
2.9017e-15
2.79729e-15
2.77766e-15
2.67999e-15
2.6558e-15
2.55464e-15
2.53046e-15
2.43245e-15
2.39871e-15
2.30264e-15
2.26343e-15
2.15454e-15
2.09904e-15
2.00123e-15
1.9073e-15
1.77941e-15
1.74477e-15
1.5793e-15
1.36097e-15
1.25272e-15
1.10364e-15
5.8576e-15
5.71607e-15
5.46894e-15
5.34772e-15
5.20854e-15
5.06835e-15
4.97236e-15
4.86224e-15
4.77083e-15
4.68118e-15
4.60958e-15
4.52084e-15
4.46146e-15
4.37625e-15
4.32542e-15
4.23661e-15
4.19273e-15
4.09704e-15
4.06021e-15
3.95644e-15
3.92542e-15
3.81383e-15
3.7874e-15
3.66977e-15
3.6463e-15
3.52306e-15
3.50015e-15
3.37014e-15
3.35229e-15
3.21964e-15
3.20798e-15
3.07943e-15
3.07041e-15
2.93991e-15
2.92874e-15
2.79392e-15
2.78461e-15
2.65946e-15
2.638e-15
2.51469e-15
2.4963e-15
2.37547e-15
2.35067e-15
2.23758e-15
2.20409e-15
2.09024e-15
2.03837e-15
1.92979e-15
1.86036e-15
1.73538e-15
1.65836e-15
1.48161e-15
1.34525e-15
1.31196e-15
9.96754e-16
8.60774e-16
6.08192e-15
5.90754e-15
5.60029e-15
5.48416e-15
5.34187e-15
5.19809e-15
5.0907e-15
4.98209e-15
4.88293e-15
4.79407e-15
4.70866e-15
4.62642e-15
4.55117e-15
4.47166e-15
4.39789e-15
4.31988e-15
4.25129e-15
4.17074e-15
4.10335e-15
4.02076e-15
3.95416e-15
3.86976e-15
3.80441e-15
3.71454e-15
3.65372e-15
3.56441e-15
3.50032e-15
3.39795e-15
3.32782e-15
3.22205e-15
3.15353e-15
3.04801e-15
2.98472e-15
2.88694e-15
2.83549e-15
2.74469e-15
2.69479e-15
2.592e-15
2.54902e-15
2.46267e-15
2.41779e-15
2.32204e-15
2.27019e-15
2.17191e-15
2.11362e-15
2.01357e-15
1.95162e-15
1.84325e-15
1.75594e-15
1.62663e-15
1.54688e-15
1.39523e-15
1.25509e-15
1.09276e-15
8.17044e-16
6.40002e-16
6.29572e-15
6.1092e-15
5.80806e-15
5.62963e-15
5.48243e-15
5.3232e-15
5.19423e-15
5.09173e-15
4.9803e-15
4.89293e-15
4.79456e-15
4.72214e-15
4.62586e-15
4.56536e-15
4.46667e-15
4.41407e-15
4.30793e-15
4.26239e-15
4.1459e-15
4.10786e-15
3.97941e-15
3.94632e-15
3.80863e-15
3.78531e-15
3.64766e-15
3.63653e-15
3.47563e-15
3.44416e-15
3.26909e-15
3.24523e-15
3.08019e-15
3.09862e-15
2.95176e-15
2.95099e-15
2.77929e-15
2.77527e-15
2.60766e-15
2.60741e-15
2.45398e-15
2.43111e-15
2.27271e-15
2.26692e-15
2.12411e-15
2.10325e-15
1.9681e-15
1.93528e-15
1.79435e-15
1.73938e-15
1.60938e-15
1.52851e-15
1.36659e-15
1.22121e-15
1.09773e-15
9.06172e-16
6.15506e-16
4.2628e-16
6.5084e-15
6.26822e-15
5.9396e-15
5.74487e-15
5.59681e-15
5.45593e-15
5.33205e-15
5.21837e-15
5.11731e-15
5.02269e-15
4.93477e-15
4.84663e-15
4.76398e-15
4.67849e-15
4.59823e-15
4.51155e-15
4.42981e-15
4.34134e-15
4.25773e-15
4.16495e-15
4.07918e-15
3.98335e-15
3.89057e-15
3.77643e-15
3.67253e-15
3.56873e-15
3.47331e-15
3.38797e-15
3.337e-15
3.25023e-15
3.15343e-15
3.04167e-15
2.9335e-15
2.81898e-15
2.72999e-15
2.63369e-15
2.5508e-15
2.45746e-15
2.37274e-15
2.29018e-15
2.21472e-15
2.1271e-15
2.04478e-15
1.96017e-15
1.87754e-15
1.79012e-15
1.70146e-15
1.60788e-15
1.50451e-15
1.39235e-15
1.2718e-15
1.13011e-15
9.73863e-16
7.80299e-16
4.58038e-16
2.14125e-16
6.67945e-15
6.32853e-15
6.02519e-15
5.83085e-15
5.66835e-15
5.52648e-15
5.40367e-15
5.29373e-15
5.19357e-15
5.09945e-15
5.01027e-15
4.92314e-15
4.83842e-15
4.75294e-15
4.66838e-15
4.58136e-15
4.49467e-15
4.40433e-15
4.31429e-15
4.21986e-15
4.12622e-15
4.0276e-15
3.93457e-15
3.86238e-15
3.80942e-15
3.73573e-15
3.62171e-15
3.45307e-15
3.26714e-15
3.09881e-15
2.98583e-15
2.91214e-15
2.85979e-15
2.78705e-15
2.6949e-15
2.59512e-15
2.50232e-15
2.40671e-15
2.31716e-15
2.22581e-15
2.13988e-15
2.05132e-15
1.96777e-15
1.88136e-15
1.79741e-15
1.70926e-15
1.62099e-15
1.52609e-15
1.42615e-15
1.31545e-15
1.19365e-15
1.05184e-15
8.89008e-16
6.94924e-16
3.92133e-16
4.15534e-17
)
;

boundaryField
{
    top
    {
        type            zeroGradient;
    }
    bottom
    {
        type            zeroGradient;
    }
    rotatingWall
    {
        type            zeroGradient;
    }
    wall
    {
        type            zeroGradient;
    }
    frontAndBack
    {
        type            empty;
    }
}


// ************************************************************************* //
