/*--------------------------------*- C++ -*----------------------------------*\
| =========                 |                                                 |
| \\      /  F ield         | OpenFOAM: The Open Source CFD Toolbox           |
|  \\    /   O peration     | Version:  5.0                                   |
|   \\  /    A nd           | Web:      www.OpenFOAM.org                      |
|    \\/     M anipulation  |                                                 |
\*---------------------------------------------------------------------------*/
FoamFile
{
    version     2.0;
    format      ascii;
    class       volScalarField;
    location    "143";
    object      p;
}
// * * * * * * * * * * * * * * * * * * * * * * * * * * * * * * * * * * * * * //

dimensions      [0 2 -2 0 0 0 0];

internalField   nonuniform List<scalar> 
1568
(
7.10674e-13
-5.27886e-13
9.68353e-13
-8.57683e-13
1.52716e-13
1.74671e-12
1.65498e-12
1.70976e-12
2.08495e-12
2.3516e-12
2.54009e-12
2.804e-12
3.10175e-12
3.37851e-12
3.62775e-12
3.89222e-12
4.14003e-12
4.4162e-12
4.67878e-12
4.97064e-12
5.19548e-12
5.47711e-12
5.77167e-12
6.16223e-12
6.55963e-12
7.06026e-12
7.4546e-12
7.81095e-12
7.97737e-12
8.18213e-12
8.33001e-12
8.62713e-12
8.85321e-12
9.13957e-12
9.31378e-12
9.54654e-12
9.66829e-12
9.86852e-12
9.98407e-12
1.0132e-11
1.02124e-11
1.03498e-11
1.04274e-11
1.05652e-11
1.06695e-11
1.08031e-11
1.09034e-11
1.10227e-11
1.11269e-11
1.12916e-11
1.13855e-11
1.15947e-11
1.20885e-11
1.19083e-11
1.26206e-11
1.28134e-11
-1.875e-13
-3.11775e-11
1.85279e-11
7.90165e-12
-5.62806e-12
4.0703e-12
4.25628e-12
2.35546e-12
3.16434e-12
4.08735e-12
4.10713e-12
4.13037e-12
4.28178e-12
4.50183e-12
4.84152e-12
5.22128e-12
5.47314e-12
5.94606e-12
6.2349e-12
6.58691e-12
6.6706e-12
7.02111e-12
6.91136e-12
7.038e-12
6.89831e-12
7.38132e-12
7.35593e-12
7.81218e-12
7.55546e-12
8.24857e-12
8.09439e-12
8.33375e-12
7.79961e-12
8.12549e-12
7.87305e-12
8.42897e-12
8.12258e-12
8.56118e-12
8.38494e-12
8.6748e-12
8.63858e-12
9.14018e-12
9.02918e-12
9.19425e-12
9.06975e-12
9.29451e-12
9.30328e-12
9.5489e-12
9.65981e-12
1.01217e-11
1.01851e-11
1.04412e-11
1.15764e-11
7.76636e-12
1.35792e-11
1.25606e-11
2.26374e-12
5.55182e-12
-2.786e-12
-1.39821e-12
-4.33327e-12
1.65767e-12
1.36929e-12
3.87689e-13
7.2774e-13
5.21593e-13
1.35442e-12
1.99928e-12
2.0194e-12
2.27631e-12
2.62652e-12
2.64736e-12
2.9224e-12
3.15269e-12
3.50607e-12
3.74551e-12
4.17884e-12
4.61511e-12
5.27408e-12
5.64339e-12
6.24785e-12
6.47821e-12
6.83982e-12
7.11279e-12
7.63031e-12
7.81414e-12
8.29647e-12
9.01894e-12
1.02215e-11
1.06409e-11
1.09371e-11
1.09977e-11
1.14101e-11
1.13646e-11
1.15775e-11
1.16591e-11
1.14942e-11
1.10792e-11
1.13622e-11
1.1481e-11
1.17726e-11
1.18781e-11
1.20448e-11
1.2271e-11
1.22987e-11
1.19494e-11
1.23246e-11
1.15135e-11
1.40214e-11
1.26555e-11
1.16948e-11
1.20333e-11
1.34845e-12
7.50755e-12
6.83114e-12
-1.08169e-12
2.27562e-12
5.92629e-12
3.82784e-12
3.39235e-12
4.84425e-12
5.27754e-12
5.01356e-12
4.92691e-12
5.19619e-12
5.68165e-12
5.74891e-12
6.02155e-12
6.2303e-12
6.34587e-12
6.35941e-12
6.67849e-12
6.75417e-12
6.88597e-12
6.85228e-12
7.02555e-12
7.07879e-12
7.35602e-12
7.42088e-12
7.68867e-12
7.73904e-12
7.88375e-12
7.71362e-12
7.46049e-12
7.09677e-12
6.942e-12
6.97811e-12
7.13991e-12
7.23564e-12
7.4451e-12
7.49653e-12
7.87344e-12
8.19366e-12
8.621e-12
8.77996e-12
8.942e-12
8.98747e-12
9.06306e-12
9.04131e-12
9.28493e-12
9.59033e-12
9.75899e-12
1.00123e-11
1.02982e-11
1.12779e-11
8.53522e-12
1.30722e-11
1.19287e-11
9.3383e-13
-3.26041e-12
-5.04845e-13
-5.26965e-13
3.83168e-12
4.4487e-12
2.76281e-12
3.07545e-12
3.97042e-12
4.37007e-12
4.3511e-12
4.45636e-12
4.6542e-12
4.8383e-12
4.96159e-12
5.21939e-12
5.51111e-12
5.8098e-12
6.05904e-12
6.2729e-12
6.42063e-12
6.53932e-12
6.68344e-12
6.86051e-12
7.00215e-12
7.20054e-12
7.38019e-12
7.42828e-12
7.50728e-12
7.63599e-12
7.79331e-12
7.85914e-12
7.90001e-12
7.92074e-12
8.1735e-12
8.32226e-12
8.38256e-12
8.47154e-12
8.56986e-12
8.65462e-12
8.72904e-12
8.79974e-12
8.84326e-12
8.90156e-12
9.00281e-12
9.09154e-12
9.23178e-12
9.48968e-12
9.50519e-12
9.7975e-12
1.03937e-11
8.82364e-12
1.07436e-11
1.2471e-11
1.00384e-11
1.13119e-11
2.08391e-12
1.21396e-12
2.24143e-12
3.39526e-12
3.71612e-12
2.09521e-12
2.02924e-12
3.06793e-12
3.19679e-12
3.15972e-12
3.3698e-12
3.71109e-12
3.97335e-12
4.23607e-12
4.47265e-12
4.62304e-12
4.76955e-12
4.96436e-12
5.18676e-12
5.36003e-12
5.5605e-12
5.84717e-12
6.10698e-12
6.34082e-12
6.53886e-12
6.7415e-12
6.9842e-12
7.23524e-12
7.46385e-12
7.73596e-12
7.98394e-12
8.27605e-12
8.62003e-12
8.88468e-12
9.03287e-12
9.15763e-12
9.2671e-12
9.42022e-12
9.53461e-12
9.63166e-12
9.69024e-12
9.77162e-12
9.85607e-12
9.92345e-12
1.00556e-11
1.01615e-11
1.02216e-11
1.04474e-11
1.05343e-11
1.03636e-11
1.08012e-11
1.10726e-11
1.11492e-11
8.24211e-12
1.18304e-11
1.12084e-11
2.46823e-12
4.17023e-12
3.77402e-12
3.6127e-12
3.40799e-12
2.76236e-12
3.30082e-12
4.16043e-12
4.27675e-12
4.1544e-12
4.36507e-12
4.62563e-12
4.77786e-12
4.91721e-12
5.07965e-12
5.25735e-12
5.42802e-12
5.56725e-12
5.72895e-12
5.9137e-12
6.11137e-12
6.28228e-12
6.4496e-12
6.61749e-12
6.80828e-12
6.97845e-12
7.16555e-12
7.33462e-12
7.51949e-12
7.66058e-12
7.73057e-12
7.80833e-12
7.98068e-12
8.10756e-12
8.17701e-12
8.25379e-12
8.42843e-12
8.56038e-12
8.6753e-12
8.80822e-12
8.96558e-12
9.09441e-12
9.22641e-12
9.37152e-12
9.52573e-12
9.58183e-12
9.66196e-12
9.92243e-12
9.80821e-12
9.77212e-12
1.06728e-11
9.5178e-12
1.04325e-11
1.19765e-11
1.0611e-11
1.06245e-11
2.65523e-12
3.69947e-12
2.73783e-12
2.67695e-12
3.68062e-12
3.80126e-12
4.06237e-12
4.42745e-12
4.56992e-12
4.50264e-12
4.74986e-12
4.97934e-12
5.11684e-12
5.23858e-12
5.37563e-12
5.55374e-12
5.72846e-12
5.8817e-12
6.03157e-12
6.19162e-12
6.33577e-12
6.48606e-12
6.61036e-12
6.75393e-12
6.89879e-12
7.05048e-12
7.16749e-12
7.29281e-12
7.4263e-12
7.53779e-12
7.65631e-12
7.77051e-12
7.80831e-12
7.87572e-12
8.00354e-12
8.12679e-12
8.22735e-12
8.33007e-12
8.41224e-12
8.52475e-12
8.62373e-12
8.69279e-12
8.76993e-12
8.8858e-12
8.96639e-12
8.98395e-12
9.06017e-12
9.34369e-12
9.39196e-12
9.30112e-12
9.72856e-12
9.69636e-12
1.02267e-11
8.18396e-12
1.06473e-11
1.03394e-11
3.13756e-12
3.62862e-12
3.06383e-12
3.30816e-12
4.46061e-12
4.14347e-12
4.18526e-12
4.45239e-12
4.54801e-12
4.65343e-12
4.85716e-12
4.92496e-12
5.08025e-12
5.26249e-12
5.39709e-12
5.54183e-12
5.6814e-12
5.82639e-12
5.98147e-12
6.11783e-12
6.24886e-12
6.42552e-12
6.5641e-12
6.69684e-12
6.83787e-12
6.9729e-12
7.11085e-12
7.24685e-12
7.38263e-12
7.49852e-12
7.65938e-12
7.80751e-12
7.9274e-12
8.03619e-12
8.17287e-12
8.28175e-12
8.37032e-12
8.4467e-12
8.53469e-12
8.62608e-12
8.71259e-12
8.77968e-12
8.8481e-12
8.9238e-12
8.99583e-12
9.04106e-12
9.14589e-12
9.36118e-12
9.29078e-12
9.25931e-12
9.89741e-12
8.95633e-12
9.68697e-12
1.02722e-11
9.61915e-12
9.89767e-12
3.79838e-12
4.67028e-12
3.82529e-12
4.0739e-12
5.05444e-12
4.36583e-12
4.4412e-12
4.81279e-12
4.78054e-12
4.86779e-12
5.08458e-12
5.20348e-12
5.31597e-12
5.43111e-12
5.53015e-12
5.67708e-12
5.79933e-12
5.91382e-12
6.03833e-12
6.20681e-12
6.31266e-12
6.41285e-12
6.5433e-12
6.68586e-12
6.80346e-12
6.93712e-12
7.09216e-12
7.24656e-12
7.37352e-12
7.50723e-12
7.61462e-12
7.72872e-12
7.83484e-12
7.95822e-12
8.06566e-12
8.15262e-12
8.25185e-12
8.35727e-12
8.4478e-12
8.53492e-12
8.61808e-12
8.69664e-12
8.76045e-12
8.86464e-12
8.96355e-12
8.99399e-12
9.05068e-12
9.26617e-12
9.23346e-12
9.14457e-12
9.6023e-12
9.08069e-12
9.90087e-12
8.81655e-12
9.61318e-12
9.59913e-12
4.35734e-12
5.31277e-12
4.22636e-12
4.58834e-12
5.46612e-12
4.68615e-12
4.75397e-12
5.19277e-12
5.23426e-12
5.23697e-12
5.32633e-12
5.51769e-12
5.59911e-12
5.65129e-12
5.76069e-12
5.8836e-12
5.99796e-12
6.10328e-12
6.20983e-12
6.30073e-12
6.4304e-12
6.52974e-12
6.65549e-12
6.74858e-12
6.8666e-12
6.97686e-12
7.10992e-12
7.22056e-12
7.34275e-12
7.45367e-12
7.53594e-12
7.62862e-12
7.72876e-12
7.82158e-12
7.91322e-12
7.9956e-12
8.0846e-12
8.17038e-12
8.25342e-12
8.33411e-12
8.41646e-12
8.48172e-12
8.54206e-12
8.63657e-12
8.72943e-12
8.72582e-12
8.79231e-12
9.01402e-12
8.92625e-12
8.81761e-12
9.43423e-12
8.78375e-12
9.07299e-12
9.09498e-12
9.3374e-12
9.21429e-12
4.90548e-12
5.87525e-12
4.63804e-12
4.90804e-12
5.79348e-12
5.08903e-12
5.15084e-12
5.53794e-12
5.5475e-12
5.54465e-12
5.6266e-12
5.72794e-12
5.76749e-12
5.85176e-12
5.99991e-12
6.04913e-12
6.11104e-12
6.21439e-12
6.33121e-12
6.38433e-12
6.50388e-12
6.62986e-12
6.74466e-12
6.84792e-12
6.99156e-12
7.09131e-12
7.13899e-12
7.15564e-12
7.22225e-12
7.32705e-12
7.44739e-12
7.56386e-12
7.65461e-12
7.73749e-12
7.81615e-12
7.91278e-12
7.99132e-12
8.06531e-12
8.13265e-12
8.2046e-12
8.27215e-12
8.34312e-12
8.39733e-12
8.4717e-12
8.55009e-12
8.52913e-12
8.57266e-12
8.78512e-12
8.68064e-12
8.60695e-12
9.06408e-12
8.31606e-12
9.16525e-12
8.8971e-12
8.45491e-12
8.80384e-12
5.43825e-12
6.25246e-12
5.15158e-12
5.35473e-12
6.1404e-12
5.48872e-12
5.52164e-12
5.84758e-12
5.79974e-12
5.77159e-12
5.86658e-12
5.94749e-12
5.99593e-12
6.05624e-12
6.13894e-12
6.19361e-12
6.26681e-12
6.35807e-12
6.4427e-12
6.51764e-12
6.58242e-12
6.65966e-12
6.68423e-12
6.70024e-12
6.76141e-12
6.89895e-12
7.0746e-12
7.27308e-12
7.41993e-12
7.46137e-12
7.48183e-12
7.53549e-12
7.60804e-12
7.70068e-12
7.77849e-12
7.8189e-12
7.90639e-12
7.98285e-12
8.04401e-12
8.10879e-12
8.17213e-12
8.22053e-12
8.25773e-12
8.31062e-12
8.39748e-12
8.39485e-12
8.40949e-12
8.61827e-12
8.53472e-12
8.31779e-12
8.91149e-12
8.53055e-12
8.44229e-12
7.72722e-12
9.00953e-12
8.52007e-12
5.98415e-12
6.73915e-12
5.60661e-12
5.8228e-12
6.53472e-12
5.86748e-12
5.84832e-12
6.14168e-12
6.08138e-12
6.01055e-12
6.07139e-12
6.1389e-12
6.1902e-12
6.21775e-12
6.23791e-12
6.31127e-12
6.39665e-12
6.44328e-12
6.49173e-12
6.57649e-12
6.65137e-12
6.74228e-12
6.85422e-12
7.00639e-12
7.09241e-12
7.13361e-12
7.09711e-12
7.06771e-12
7.12e-12
7.24759e-12
7.36313e-12
7.46652e-12
7.53287e-12
7.60162e-12
7.69788e-12
7.75268e-12
7.8341e-12
7.88855e-12
7.93994e-12
8.01329e-12
8.07581e-12
8.11794e-12
8.16073e-12
8.2047e-12
8.25849e-12
8.25705e-12
8.26783e-12
8.43499e-12
8.33269e-12
8.27541e-12
8.63349e-12
7.60912e-12
8.84854e-12
8.77912e-12
7.73467e-12
8.0702e-12
6.47145e-12
7.15637e-12
6.04968e-12
6.23232e-12
6.93027e-12
6.22225e-12
6.16799e-12
6.44731e-12
6.37521e-12
6.2841e-12
6.3271e-12
6.37672e-12
6.38938e-12
6.40963e-12
6.44024e-12
6.48669e-12
6.51933e-12
6.54328e-12
6.59831e-12
6.66811e-12
6.72333e-12
6.78102e-12
6.88037e-12
7.00314e-12
7.0679e-12
7.08806e-12
7.0986e-12
7.07725e-12
7.10602e-12
7.22478e-12
7.32894e-12
7.4123e-12
7.48386e-12
7.53175e-12
7.59626e-12
7.68939e-12
7.73509e-12
7.78004e-12
7.83785e-12
7.89049e-12
7.94042e-12
7.97807e-12
8.02294e-12
8.08179e-12
8.13017e-12
8.0926e-12
8.09078e-12
8.27322e-12
8.20046e-12
7.90619e-12
8.3275e-12
8.31144e-12
8.17669e-12
6.19927e-12
8.70563e-12
7.8684e-12
6.97933e-12
7.92565e-12
6.49668e-12
6.56749e-12
7.31987e-12
6.55898e-12
6.48634e-12
6.74295e-12
6.64391e-12
6.54248e-12
6.57853e-12
6.60583e-12
6.59107e-12
6.59563e-12
6.63195e-12
6.65587e-12
6.67349e-12
6.71047e-12
6.74962e-12
6.76588e-12
6.79763e-12
6.84102e-12
6.82184e-12
6.77536e-12
6.77832e-12
6.86275e-12
7.06894e-12
7.26447e-12
7.37772e-12
7.38365e-12
7.34967e-12
7.36681e-12
7.44512e-12
7.5023e-12
7.53392e-12
7.59255e-12
7.62746e-12
7.68437e-12
7.74543e-12
7.77906e-12
7.82345e-12
7.85191e-12
7.85908e-12
7.9047e-12
7.95917e-12
7.92066e-12
7.91421e-12
8.07374e-12
7.9763e-12
7.90994e-12
8.15331e-12
7.08704e-12
8.51251e-12
8.42512e-12
7.2782e-12
7.41748e-12
7.41727e-12
8.05454e-12
6.78981e-12
6.95283e-12
7.70257e-12
6.86733e-12
6.79288e-12
7.04242e-12
6.91761e-12
6.79522e-12
6.79521e-12
6.80073e-12
6.77567e-12
6.76374e-12
6.75934e-12
6.76382e-12
6.77377e-12
6.79576e-12
6.81091e-12
6.83344e-12
6.85882e-12
6.90482e-12
6.95395e-12
7.03779e-12
7.0978e-12
7.1256e-12
7.10906e-12
7.08557e-12
7.10292e-12
7.16657e-12
7.22754e-12
7.3089e-12
7.35721e-12
7.40696e-12
7.44812e-12
7.5111e-12
7.54956e-12
7.59677e-12
7.62921e-12
7.67862e-12
7.71654e-12
7.75047e-12
7.75323e-12
7.79289e-12
7.83155e-12
7.79154e-12
7.76274e-12
7.94361e-12
7.84986e-12
7.47721e-12
7.91077e-12
8.08818e-12
7.52257e-12
5.3176e-12
8.53429e-12
7.30264e-12
7.90014e-12
8.74901e-12
7.34693e-12
7.30657e-12
8.06774e-12
7.18845e-12
7.08427e-12
7.31472e-12
7.1699e-12
7.02494e-12
7.01757e-12
7.0063e-12
6.96648e-12
6.92949e-12
6.91848e-12
6.9134e-12
6.91007e-12
6.9005e-12
6.91155e-12
6.92134e-12
6.93999e-12
6.94013e-12
6.96428e-12
6.98392e-12
7.02313e-12
7.04549e-12
7.08652e-12
7.09656e-12
7.14656e-12
7.1807e-12
7.23695e-12
7.26817e-12
7.31702e-12
7.33806e-12
7.3956e-12
7.42596e-12
7.47868e-12
7.50483e-12
7.55131e-12
7.57185e-12
7.61174e-12
7.62418e-12
7.64886e-12
7.67491e-12
7.71638e-12
7.65989e-12
7.64608e-12
7.77145e-12
7.64271e-12
7.58962e-12
7.85514e-12
6.58721e-12
8.13842e-12
8.37657e-12
6.46424e-12
6.86051e-12
8.34644e-12
8.86701e-12
7.72431e-12
7.5662e-12
8.3906e-12
7.48402e-12
7.3389e-12
7.55048e-12
7.3882e-12
7.23212e-12
7.20162e-12
7.17161e-12
7.10917e-12
7.06859e-12
7.04113e-12
7.03058e-12
6.99996e-12
6.99148e-12
6.97377e-12
6.9754e-12
6.96259e-12
6.97485e-12
6.96921e-12
6.97718e-12
6.97847e-12
7.01414e-12
7.04253e-12
7.09687e-12
7.13225e-12
7.18086e-12
7.19829e-12
7.23969e-12
7.27667e-12
7.31924e-12
7.35184e-12
7.39252e-12
7.42206e-12
7.45865e-12
7.48669e-12
7.52069e-12
7.54826e-12
7.56943e-12
7.57007e-12
7.58946e-12
7.62308e-12
7.55464e-12
7.50747e-12
7.66111e-12
7.57948e-12
7.15355e-12
7.56692e-12
7.81634e-12
7.12278e-12
4.49129e-12
8.1506e-12
6.85496e-12
8.77829e-12
9.29513e-12
8.34537e-12
7.83122e-12
8.68659e-12
7.80687e-12
7.62234e-12
7.80957e-12
7.63714e-12
7.4505e-12
7.38968e-12
7.34811e-12
7.27931e-12
7.23154e-12
7.17501e-12
7.13309e-12
7.09228e-12
7.08221e-12
7.04462e-12
7.04286e-12
7.01116e-12
7.03786e-12
6.99315e-12
7.02403e-12
6.99036e-12
7.04984e-12
7.02822e-12
7.09964e-12
7.06371e-12
7.13554e-12
7.10049e-12
7.18591e-12
7.15835e-12
7.25163e-12
7.22499e-12
7.3185e-12
7.27718e-12
7.36794e-12
7.33399e-12
7.41921e-12
7.37792e-12
7.43858e-12
7.37564e-12
7.47403e-12
7.46916e-12
7.45381e-12
7.37444e-12
7.55386e-12
7.34802e-12
7.37786e-12
7.53656e-12
5.98364e-12
8.00107e-12
8.64239e-12
6.02954e-12
6.4164e-12
9.16911e-12
9.41047e-12
8.81286e-12
8.11432e-12
9.12868e-12
8.24424e-12
8.00046e-12
8.1428e-12
7.98417e-12
7.78139e-12
7.73856e-12
7.6359e-12
7.58551e-12
7.45314e-12
7.48488e-12
7.37152e-12
7.41239e-12
7.25474e-12
7.33259e-12
7.18576e-12
7.28128e-12
7.1194e-12
7.24107e-12
7.08798e-12
7.22386e-12
7.03763e-12
7.19012e-12
6.98023e-12
7.148e-12
6.96641e-12
7.14618e-12
6.94384e-12
7.13464e-12
6.95673e-12
7.18358e-12
7.00852e-12
7.22476e-12
7.04626e-12
7.25729e-12
7.07971e-12
7.27728e-12
7.10221e-12
7.24885e-12
7.13919e-12
7.304e-12
7.09526e-12
7.18968e-12
7.23722e-12
7.25479e-12
6.65941e-12
7.094e-12
7.97321e-12
7.03101e-12
2.9905e-12
8.28528e-12
6.5268e-12
9.51301e-12
9.55543e-12
9.26868e-12
7.96219e-12
8.93434e-12
8.19147e-12
7.92039e-12
8.06762e-12
7.87483e-12
7.71241e-12
7.6025e-12
7.56554e-12
7.46334e-12
7.38162e-12
7.24193e-12
7.16251e-12
7.09507e-12
7.07996e-12
7.00421e-12
6.9802e-12
6.91855e-12
6.91431e-12
6.89116e-12
6.87146e-12
6.88204e-12
6.87637e-12
6.93266e-12
6.936e-12
7.01875e-12
7.02047e-12
7.08178e-12
7.06631e-12
7.15827e-12
7.08944e-12
7.17274e-12
7.1679e-12
7.30826e-12
7.27792e-12
7.40368e-12
7.38741e-12
7.54867e-12
7.56294e-12
7.65011e-12
7.58024e-12
7.61609e-12
7.45947e-12
7.54862e-12
7.60926e-12
7.40041e-12
7.28817e-12
7.81528e-12
5.76913e-12
7.62606e-12
8.84501e-12
6.35715e-12
6.17658e-12
9.82046e-12
9.8608e-12
9.33091e-12
8.54018e-12
9.13626e-12
8.27183e-12
8.03296e-12
8.18138e-12
7.81988e-12
7.69862e-12
7.50263e-12
7.53891e-12
7.18637e-12
7.30309e-12
6.96864e-12
7.22757e-12
6.77403e-12
7.10788e-12
6.62632e-12
7.07602e-12
6.5095e-12
7.06411e-12
6.40442e-12
7.06807e-12
6.37246e-12
7.15072e-12
6.42043e-12
7.28601e-12
6.50552e-12
7.43542e-12
6.62206e-12
7.6174e-12
6.79158e-12
7.80376e-12
6.89131e-12
7.87417e-12
6.93898e-12
7.93193e-12
7.07596e-12
8.01499e-12
7.1463e-12
8.00856e-12
7.21759e-12
8.04512e-12
7.45074e-12
8.03572e-12
7.26579e-12
7.88298e-12
7.32287e-12
7.40888e-12
6.94689e-12
7.80601e-12
7.72804e-12
4.04176e-12
7.5126e-12
6.31538e-12
1.01986e-11
1.07877e-11
9.46405e-12
9.7236e-12
1.02825e-11
9.31913e-12
9.32844e-12
9.37029e-12
9.18894e-12
8.90039e-12
8.95464e-12
8.70675e-12
8.80068e-12
8.51744e-12
8.68896e-12
8.34429e-12
8.57306e-12
8.08062e-12
8.41038e-12
7.83915e-12
8.29121e-12
7.65038e-12
8.14651e-12
7.43945e-12
7.95342e-12
7.17828e-12
7.6928e-12
6.8417e-12
7.43359e-12
6.52907e-12
7.09307e-12
6.14242e-12
6.74092e-12
5.91159e-12
6.65011e-12
5.87532e-12
6.60552e-12
5.87704e-12
6.50028e-12
5.90359e-12
6.52802e-12
5.85594e-12
6.33033e-12
5.80802e-12
6.28899e-12
5.76714e-12
6.14327e-12
6.09825e-12
6.27914e-12
5.83039e-12
6.74547e-12
5.50612e-12
5.29596e-12
8.19315e-12
5.05144e-12
5.95333e-12
1.05053e-11
1.04263e-11
8.29335e-12
8.93775e-12
9.62879e-12
8.78737e-12
8.73288e-12
8.8436e-12
8.76057e-12
8.47021e-12
8.44473e-12
8.19699e-12
8.27186e-12
7.86567e-12
7.90976e-12
7.44341e-12
7.72074e-12
7.16371e-12
7.56399e-12
6.93567e-12
7.46471e-12
6.75728e-12
7.41796e-12
6.57666e-12
7.35902e-12
6.46084e-12
7.42508e-12
6.4494e-12
7.4206e-12
6.23632e-12
7.03626e-12
5.55397e-12
6.36176e-12
5.15607e-12
6.4559e-12
5.54184e-12
6.89733e-12
5.78421e-12
7.32057e-12
6.54569e-12
7.92437e-12
7.00519e-12
8.0808e-12
7.06922e-12
7.96777e-12
7.04985e-12
8.02323e-12
7.38691e-12
7.77253e-12
6.98191e-12
8.17095e-12
7.56251e-12
7.84561e-12
6.88748e-12
7.08417e-12
6.06782e-12
1.09802e-11
1.20093e-11
1.11232e-11
1.01983e-11
1.01437e-11
8.94386e-12
8.31417e-12
8.41055e-12
7.9278e-12
7.87282e-12
7.41068e-12
7.62501e-12
7.0667e-12
7.50852e-12
6.81363e-12
7.48193e-12
6.61461e-12
7.5249e-12
6.38416e-12
7.52812e-12
6.07784e-12
7.40678e-12
5.73633e-12
7.4557e-12
5.61065e-12
7.46495e-12
5.45835e-12
7.51041e-12
5.41552e-12
7.89776e-12
6.13863e-12
9.32367e-12
7.68043e-12
1.03329e-11
7.73697e-12
9.8969e-12
7.30477e-12
9.47639e-12
7.11957e-12
8.5234e-12
5.9724e-12
7.95179e-12
6.13648e-12
7.92569e-12
6.34629e-12
7.72681e-12
6.27444e-12
7.46541e-12
6.23476e-12
6.7092e-12
5.89419e-12
5.45319e-12
5.50951e-12
5.04878e-12
5.15592e-12
5.75984e-12
1.11674e-11
1.01469e-11
1.09474e-11
9.49992e-12
9.78195e-12
9.74829e-12
9.74618e-12
9.54293e-12
9.33966e-12
9.12688e-12
9.12913e-12
8.89697e-12
8.82457e-12
8.57494e-12
8.63592e-12
8.32379e-12
8.3285e-12
7.98336e-12
8.04142e-12
7.68473e-12
7.85867e-12
7.53022e-12
7.68025e-12
7.28155e-12
7.43873e-12
6.99195e-12
7.28854e-12
6.82745e-12
7.13059e-12
6.62991e-12
6.79581e-12
5.96888e-12
5.99804e-12
5.46499e-12
5.87698e-12
5.57406e-12
6.06678e-12
5.78373e-12
6.11354e-12
6.09094e-12
6.6418e-12
6.4416e-12
6.58542e-12
6.40598e-12
6.60135e-12
6.41645e-12
6.56647e-12
6.62e-12
6.56745e-12
6.39272e-12
6.91392e-12
6.84176e-12
6.66727e-12
5.26813e-12
7.55268e-12
5.89432e-12
1.13915e-11
1.08239e-11
1.04173e-11
9.98697e-12
9.74021e-12
9.46409e-12
9.23082e-12
9.02157e-12
8.84354e-12
8.66181e-12
8.51716e-12
8.34397e-12
8.21174e-12
8.04122e-12
7.92876e-12
7.75828e-12
7.66388e-12
7.49899e-12
7.42284e-12
7.25673e-12
7.22818e-12
7.12154e-12
7.0819e-12
6.83216e-12
6.73317e-12
6.58409e-12
6.66559e-12
6.58192e-12
6.65763e-12
6.57196e-12
6.69673e-12
6.63456e-12
6.75778e-12
6.70146e-12
6.83073e-12
6.76908e-12
6.89669e-12
6.83939e-12
6.94532e-12
6.90451e-12
7.01706e-12
6.96996e-12
7.05998e-12
7.02363e-12
7.09317e-12
7.03347e-12
7.06163e-12
7.0023e-12
6.96841e-12
6.83809e-12
6.77786e-12
6.65967e-12
6.55929e-12
6.24378e-12
6.14392e-12
5.79575e-12
)
;

boundaryField
{
    top
    {
        type            zeroGradient;
    }
    bottom
    {
        type            zeroGradient;
    }
    rotatingWall
    {
        type            zeroGradient;
    }
    wall
    {
        type            zeroGradient;
    }
    frontAndBack
    {
        type            empty;
    }
}


// ************************************************************************* //
