/*--------------------------------*- C++ -*----------------------------------*\
| =========                 |                                                 |
| \\      /  F ield         | OpenFOAM: The Open Source CFD Toolbox           |
|  \\    /   O peration     | Version:  5.0                                   |
|   \\  /    A nd           | Web:      www.OpenFOAM.org                      |
|    \\/     M anipulation  |                                                 |
\*---------------------------------------------------------------------------*/
FoamFile
{
    version     2.0;
    format      ascii;
    class       surfaceScalarField;
    location    "1";
    object      phi;
}
// * * * * * * * * * * * * * * * * * * * * * * * * * * * * * * * * * * * * * //

dimensions      [0 3 -1 0 0 0 0];

internalField   nonuniform List<scalar> 
85
(
0.000100749
7.99088e-20
0.000100749
-1.35769e-19
0.000100749
-5.11928e-20
0.000100749
-4.67843e-20
1.26747e-20
0.000100749
1.75854e-19
0.000100749
8.25371e-20
0.000100749
-1.11569e-19
0.000100749
-9.78402e-20
1.02436e-20
0.000100749
1.69721e-19
0.000100749
8.96793e-21
0.000100749
-8.95923e-20
0.000100749
-3.4258e-21
7.91697e-20
0.000100749
1.8742e-19
0.000100749
5.95861e-20
0.000100749
-2.70047e-19
0.000100749
-1.64789e-20
2.10744e-19
0.000100749
1.60355e-19
0.000100749
1.07529e-19
0.000100749
-2.35513e-19
0.000100749
-1.17969e-20
2.90715e-19
0.000100749
2.18777e-20
0.000100749
1.45406e-19
0.000100749
-3.80026e-19
0.000100749
9.44259e-20
3.02576e-19
0.000100749
9.07331e-20
0.000100749
1.49651e-19
0.000100749
-3.90563e-19
0.000100749
3.84594e-20
3.95206e-19
0.000100749
1.46265e-19
0.000100749
9.53372e-20
0.000100749
-3.68097e-19
0.000100749
4.90729e-20
3.27889e-19
0.000100749
2.22543e-20
0.000100749
1.35186e-19
0.000100749
-3.14638e-19
0.000100749
6.43187e-20
3.3287e-19
0.000100749
0.000100749
0.000100749
0.000100749
)
;

boundaryField
{
    top
    {
        type            calculated;
        value           nonuniform List<scalar> 5(2.50495e-20 1.26539e-19 -4.52929e-19 -4.85088e-20 4.24408e-19);
    }
    bottom
    {
        type            symmetryPlane;
        value           uniform 0;
    }
    inlet
    {
        type            calculated;
        value           nonuniform List<scalar> 10(-0.000100749 -0.000100749 -0.000100749 -0.000100749 -0.000100749 -0.000100749 -0.000100749 -0.000100749 -0.000100749 -0.000100749);
    }
    outlet
    {
        type            calculated;
        value           nonuniform 0();
    }
    frontAndBack
    {
        type            empty;
        value           nonuniform 0();
    }
    procBoundary0to1
    {
        type            processor;
        value           nonuniform List<scalar> 10(0.000100749 0.000100749 0.000100749 0.000100749 0.000100749 0.000100749 0.000100749 0.000100749 0.000100749 0.000100749);
    }
}


// ************************************************************************* //
