/*--------------------------------*- C++ -*----------------------------------*\
| =========                 |                                                 |
| \\      /  F ield         | OpenFOAM: The Open Source CFD Toolbox           |
|  \\    /   O peration     | Version:  5.0                                   |
|   \\  /    A nd           | Web:      www.OpenFOAM.org                      |
|    \\/     M anipulation  |                                                 |
\*---------------------------------------------------------------------------*/
FoamFile
{
    version     2.0;
    format      ascii;
    class       surfaceScalarField;
    location    "1";
    object      phi;
}
// * * * * * * * * * * * * * * * * * * * * * * * * * * * * * * * * * * * * * //

dimensions      [0 3 -1 0 0 0 0];

internalField   nonuniform List<scalar> 
370
(
1.8351e-14
2.25131e-17
1.83247e-14
2.62046e-17
1.83187e-14
6.08681e-18
1.83166e-14
2.11091e-18
1.83162e-14
2.95922e-19
1.83161e-14
1.00184e-19
1.83161e-14
1.78302e-20
1.83161e-14
2.15961e-20
1.83161e-14
-6.82294e-21
1.55623e-20
1.82391e-14
4.47773e-17
1.82138e-14
5.1565e-17
1.82081e-14
1.1758e-17
1.82059e-14
4.19701e-18
1.82057e-14
5.34003e-19
1.82055e-14
2.6902e-19
1.82056e-14
-5.36485e-20
1.82055e-14
3.18397e-20
1.82056e-14
-1.04426e-20
7.03744e-20
1.80164e-14
6.57169e-17
1.79926e-14
7.53706e-17
1.79873e-14
1.70182e-17
1.79854e-14
6.1691e-18
1.79852e-14
7.38098e-19
1.7985e-14
4.11547e-19
1.7985e-14
-1.22184e-19
1.7985e-14
8.39405e-20
1.7985e-14
-7.90993e-20
1.13535e-19
1.7684e-14
8.47763e-17
1.76624e-14
9.68717e-17
1.76578e-14
2.17017e-17
1.7656e-14
7.91988e-18
1.76559e-14
8.78057e-19
1.76557e-14
5.59573e-19
1.76558e-14
-1.92161e-19
1.76557e-14
1.17114e-19
1.76557e-14
-1.53811e-19
1.38117e-19
1.72437e-14
1.01385e-16
1.72251e-14
1.15435e-16
1.72212e-14
2.55714e-17
1.72198e-14
9.38029e-18
1.72197e-14
9.54223e-19
1.72195e-14
6.52977e-19
1.72196e-14
-2.6835e-19
1.72195e-14
1.3932e-19
1.72195e-14
-1.81803e-19
1.60087e-19
1.66981e-14
1.15021e-16
1.66831e-14
1.3046e-16
1.66802e-14
2.85582e-17
1.6679e-14
1.05105e-17
1.66789e-14
1.058e-18
1.66788e-14
7.8069e-19
1.66789e-14
-2.83982e-19
1.66788e-14
2.01735e-19
1.66789e-14
-2.13427e-19
1.67033e-19
1.60505e-14
1.25259e-16
1.60395e-14
1.41465e-16
1.60375e-14
3.05259e-17
1.60368e-14
1.12751e-17
1.60367e-14
1.01916e-18
1.60366e-14
9.02182e-19
1.60367e-14
-2.95681e-19
1.60367e-14
2.45981e-19
1.60367e-14
-2.71695e-19
1.83372e-19
1.53045e-14
1.31804e-16
1.52978e-14
1.48103e-16
1.5297e-14
3.1363e-17
1.52966e-14
1.16784e-17
1.52966e-14
9.6351e-19
1.52965e-14
9.31622e-19
1.52966e-14
-3.31829e-19
1.52966e-14
2.93283e-19
1.52966e-14
-2.43569e-19
1.87994e-19
1.44644e-14
1.34368e-16
1.44624e-14
1.50107e-16
1.44626e-14
3.11431e-17
1.44626e-14
1.16509e-17
1.44627e-14
8.44669e-19
1.44626e-14
1.00883e-18
1.44627e-14
-3.31217e-19
1.44627e-14
3.16021e-19
1.44627e-14
-2.56202e-19
1.98813e-19
1.35352e-14
1.32947e-16
1.35378e-14
1.47452e-16
1.35391e-14
2.98549e-17
1.35395e-14
1.12807e-17
1.35396e-14
7.1485e-19
1.35396e-14
1.0066e-18
1.35397e-14
-3.74819e-19
1.35396e-14
3.0442e-19
1.35396e-14
-2.78068e-19
2.09416e-19
1.25222e-14
1.27472e-16
1.25294e-14
1.40235e-16
1.25317e-14
2.76025e-17
1.25324e-14
1.05942e-17
1.25326e-14
5.42108e-19
1.25325e-14
9.82166e-19
1.25326e-14
-3.90999e-19
1.25325e-14
3.34432e-19
1.25326e-14
-2.77412e-19
2.40215e-19
1.14312e-14
1.18151e-16
1.14427e-14
1.28749e-16
1.14458e-14
2.4535e-17
1.14468e-14
9.58376e-18
1.1447e-14
3.3617e-19
1.1447e-14
9.75349e-19
1.14471e-14
-4.34337e-19
1.1447e-14
3.64142e-19
1.14471e-14
-2.80424e-19
2.38769e-19
1.02687e-14
1.05401e-16
1.02839e-14
1.13543e-16
1.02877e-14
2.08019e-17
1.02889e-14
8.34387e-18
1.02891e-14
9.75332e-20
1.02891e-14
8.80215e-19
1.02892e-14
-4.40371e-19
1.02892e-14
3.95217e-19
1.02892e-14
-2.9358e-19
1.78585e-19
9.04132e-15
8.9792e-17
9.05953e-15
9.53024e-17
9.06367e-15
1.66286e-17
9.06508e-15
6.93923e-18
9.06527e-15
-1.05545e-19
9.06531e-15
8.17225e-19
9.06532e-15
-4.26614e-19
9.06532e-15
3.54464e-19
9.06531e-15
-3.26543e-19
1.99908e-19
7.75618e-15
7.21379e-17
7.77636e-15
7.51304e-17
7.78064e-15
1.24071e-17
7.78212e-15
5.4608e-18
7.78228e-15
-2.89423e-19
7.78234e-15
7.33933e-19
7.78233e-15
-3.91144e-19
7.78234e-15
3.49451e-19
7.78232e-15
-2.64254e-19
1.89993e-19
6.42075e-15
5.34336e-17
6.44161e-15
5.42553e-17
6.44571e-15
8.3036e-18
6.44718e-15
3.9561e-18
6.44728e-15
-3.7391e-19
6.44736e-15
6.28268e-19
6.44733e-15
-3.74434e-19
6.44736e-15
3.03765e-19
6.44733e-15
-2.40357e-19
1.74642e-19
5.04276e-15
3.49918e-17
5.06273e-15
3.42711e-17
5.06632e-15
4.68818e-18
5.06769e-15
2.58403e-18
5.06772e-15
-4.20312e-19
5.06782e-15
4.75129e-19
5.06777e-15
-2.9638e-19
5.06781e-15
2.96949e-19
5.06777e-15
-1.90479e-19
1.60562e-19
3.6302e-15
1.84901e-17
3.64739e-15
1.70826e-17
3.65015e-15
1.98991e-18
3.65133e-15
1.42899e-18
3.65127e-15
-3.41562e-19
3.65141e-15
3.34361e-19
3.65132e-15
-2.11379e-19
3.65139e-15
2.27346e-19
3.65133e-15
-1.2351e-19
1.02524e-19
2.19126e-15
5.8384e-18
2.20348e-15
4.88395e-18
2.20508e-15
3.84688e-19
2.20601e-15
5.02437e-19
2.20583e-15
-1.67161e-19
2.20601e-15
1.54467e-19
2.20589e-15
-8.16694e-20
2.20598e-15
7.07469e-20
2.20591e-15
-6.5028e-20
2.50984e-20
7.33948e-16
7.38815e-16
7.39195e-16
7.39669e-16
7.3949e-16
7.39628e-16
7.39532e-16
7.39607e-16
7.39549e-16
)
;

boundaryField
{
    top
    {
        type            calculated;
        value           uniform 0;
    }
    bottom
    {
        type            symmetryPlane;
        value           uniform 0;
    }
    inlet
    {
        type            calculated;
        value           nonuniform List<scalar> 
20
(
-1.83735e-14
-1.82614e-14
-1.80374e-14
-1.7703e-14
-1.72603e-14
-1.67118e-14
-1.60607e-14
-1.5311e-14
-1.4467e-14
-1.35337e-14
-1.25167e-14
-1.14219e-14
-1.0256e-14
-9.02571e-15
-7.73851e-15
-6.40206e-15
-5.02436e-15
-3.61371e-15
-2.17862e-15
-7.28118e-16
)
;
    }
    outlet
    {
        type            calculated;
        value           nonuniform 0();
    }
    frontAndBack
    {
        type            empty;
        value           nonuniform 0();
    }
    procBoundary0to1
    {
        type            processor;
        value           nonuniform List<scalar> 
20
(
1.83161e-14
1.82055e-14
1.7985e-14
1.76557e-14
1.72195e-14
1.66788e-14
1.60366e-14
1.52965e-14
1.44627e-14
1.35396e-14
1.25325e-14
1.1447e-14
1.02891e-14
9.06529e-15
7.78231e-15
6.44733e-15
5.06779e-15
3.65136e-15
2.20595e-15
7.39585e-16
)
;
    }
}


// ************************************************************************* //
