/*--------------------------------*- C++ -*----------------------------------*\
| =========                 |                                                 |
| \\      /  F ield         | OpenFOAM: The Open Source CFD Toolbox           |
|  \\    /   O peration     | Version:  5.0                                   |
|   \\  /    A nd           | Web:      www.OpenFOAM.org                      |
|    \\/     M anipulation  |                                                 |
\*---------------------------------------------------------------------------*/
FoamFile
{
    version     2.0;
    format      ascii;
    class       volScalarField;
    location    "1";
    object      shearRate;
}
// * * * * * * * * * * * * * * * * * * * * * * * * * * * * * * * * * * * * * //

dimensions      [0 0 -1 0 0 0 0];

internalField   nonuniform List<scalar> 
200
(
2.30028e-10
2.27459e-10
2.26421e-10
2.26106e-10
2.26071e-10
2.26048e-10
2.26054e-10
2.26048e-10
2.26052e-10
2.26048e-10
6.87711e-10
6.79796e-10
6.77966e-10
6.77084e-10
6.76996e-10
6.76927e-10
6.76946e-10
6.76927e-10
6.76937e-10
6.76927e-10
1.14158e-09
1.12857e-09
1.12575e-09
1.12432e-09
1.12419e-09
1.12407e-09
1.1241e-09
1.12407e-09
1.12409e-09
1.12407e-09
1.58877e-09
1.57098e-09
1.56723e-09
1.5653e-09
1.56514e-09
1.56497e-09
1.56502e-09
1.56498e-09
1.56501e-09
1.56499e-09
2.02659e-09
2.00447e-09
1.99995e-09
1.99759e-09
1.9974e-09
1.99719e-09
1.99726e-09
1.9972e-09
1.99724e-09
1.99722e-09
2.45248e-09
2.42656e-09
2.42145e-09
2.41873e-09
2.41855e-09
2.4183e-09
2.41839e-09
2.41831e-09
2.41837e-09
2.41833e-09
2.86389e-09
2.83487e-09
2.82938e-09
2.8264e-09
2.82625e-09
2.82595e-09
2.82607e-09
2.82598e-09
2.82605e-09
2.826e-09
3.25839e-09
3.22706e-09
3.22145e-09
3.21832e-09
3.21822e-09
3.21789e-09
3.21803e-09
3.21792e-09
3.218e-09
3.21795e-09
3.63363e-09
3.60094e-09
3.59548e-09
3.5923e-09
3.59229e-09
3.59192e-09
3.5921e-09
3.59196e-09
3.59206e-09
3.59199e-09
3.98737e-09
3.95441e-09
3.9494e-09
3.94628e-09
3.94638e-09
3.94597e-09
3.94619e-09
3.94602e-09
3.94615e-09
3.94606e-09
4.31748e-09
4.28548e-09
4.28122e-09
4.27828e-09
4.27853e-09
4.27806e-09
4.27834e-09
4.27814e-09
4.27829e-09
4.27818e-09
4.62198e-09
4.59232e-09
4.58913e-09
4.58646e-09
4.58688e-09
4.58637e-09
4.5867e-09
4.58646e-09
4.58664e-09
4.58651e-09
4.89901e-09
4.87324e-09
4.87142e-09
4.8691e-09
4.86974e-09
4.86915e-09
4.86955e-09
4.86926e-09
4.86948e-09
4.86933e-09
5.14687e-09
5.12671e-09
5.12655e-09
5.12464e-09
5.12552e-09
5.12485e-09
5.12533e-09
5.12499e-09
5.12525e-09
5.12506e-09
5.364e-09
5.35137e-09
5.35312e-09
5.35166e-09
5.3528e-09
5.35203e-09
5.35261e-09
5.35219e-09
5.3525e-09
5.35228e-09
5.54902e-09
5.54603e-09
5.54988e-09
5.54886e-09
5.5503e-09
5.5494e-09
5.55009e-09
5.54959e-09
5.54996e-09
5.54969e-09
5.70073e-09
5.70968e-09
5.71576e-09
5.71514e-09
5.7169e-09
5.71584e-09
5.71667e-09
5.71606e-09
5.71651e-09
5.71618e-09
5.81806e-09
5.84153e-09
5.84988e-09
5.84956e-09
5.85168e-09
5.85041e-09
5.8514e-09
5.85067e-09
5.8512e-09
5.8508e-09
5.90019e-09
5.94102e-09
5.9516e-09
5.95142e-09
5.95392e-09
5.9524e-09
5.95358e-09
5.9527e-09
5.95333e-09
5.95284e-09
5.94647e-09
6.00786e-09
6.02047e-09
6.02019e-09
6.0231e-09
6.02126e-09
6.02269e-09
6.02162e-09
6.02237e-09
6.02178e-09
)
;

boundaryField
{
    top
    {
        type            zeroGradient;
    }
    bottom
    {
        type            symmetryPlane;
    }
    inlet
    {
        type            zeroGradient;
    }
    outlet
    {
        type            zeroGradient;
    }
    frontAndBack
    {
        type            empty;
    }
    procBoundary0to1
    {
        type            processor;
        value           nonuniform List<scalar> 
20
(
2.26049e-10
6.76932e-10
1.12409e-09
1.565e-09
1.99724e-09
2.41836e-09
2.82603e-09
3.21799e-09
3.59204e-09
3.94612e-09
4.27826e-09
4.5866e-09
4.86944e-09
5.12519e-09
5.35244e-09
5.54988e-09
5.71641e-09
5.85109e-09
5.95319e-09
6.02219e-09
)
;
    }
}


// ************************************************************************* //
