/*--------------------------------*- C++ -*----------------------------------*\
| =========                 |                                                 |
| \\      /  F ield         | OpenFOAM: The Open Source CFD Toolbox           |
|  \\    /   O peration     | Version:  5.0                                   |
|   \\  /    A nd           | Web:      www.OpenFOAM.org                      |
|    \\/     M anipulation  |                                                 |
\*---------------------------------------------------------------------------*/
FoamFile
{
    version     2.0;
    format      ascii;
    class       volScalarField;
    location    "1";
    object      shearRate;
}
// * * * * * * * * * * * * * * * * * * * * * * * * * * * * * * * * * * * * * //

dimensions      [0 0 -1 0 0 0 0];

internalField   nonuniform List<scalar> 
50
(
2.72493e-15
9.49617e-15
2.02966e-14
6.71089e-15
2.3989e-14
2.28562e-14
4.36999e-14
1.58413e-14
4.3725e-14
5.14695e-15
2.23524e-14
4.20243e-15
2.74971e-14
2.21116e-14
2.6567e-14
4.48867e-15
2.21306e-14
2.73731e-14
4.34917e-15
2.58703e-14
8.06563e-15
2.32267e-14
1.37136e-14
2.20934e-14
1.26219e-14
8.19133e-15
2.22954e-14
2.89709e-14
4.77383e-15
1.22763e-14
1.0581e-14
7.88717e-15
4.99937e-14
7.24305e-15
2.44787e-14
2.34469e-14
2.21112e-14
4.70912e-14
2.40193e-14
9.96992e-15
4.23272e-15
2.54843e-15
1.35713e-14
2.39055e-14
2.18569e-14
4.34823e-14
2.32611e-15
4.54685e-14
7.32324e-15
2.17609e-14
)
;

boundaryField
{
    top
    {
        type            zeroGradient;
    }
    bottom
    {
        type            symmetryPlane;
    }
    inlet
    {
        type            zeroGradient;
    }
    outlet
    {
        type            zeroGradient;
    }
    frontAndBack
    {
        type            empty;
    }
    procBoundary0to1
    {
        type            processor;
        value           nonuniform List<scalar> 10(2.19763e-14 2.27595e-14 2.25008e-14 4.43162e-14 2.21649e-14 2.25134e-14 2.28478e-14 4.47037e-14 8.8232e-15 6.55994e-14);
    }
}


// ************************************************************************* //
