/*--------------------------------*- C++ -*----------------------------------*\
| =========                 |                                                 |
| \\      /  F ield         | OpenFOAM: The Open Source CFD Toolbox           |
|  \\    /   O peration     | Version:  5.0                                   |
|   \\  /    A nd           | Web:      www.OpenFOAM.org                      |
|    \\/     M anipulation  |                                                 |
\*---------------------------------------------------------------------------*/
FoamFile
{
    version     2.0;
    format      ascii;
    class       volVectorField;
    location    "1";
    object      U;
}
// * * * * * * * * * * * * * * * * * * * * * * * * * * * * * * * * * * * * * //

dimensions      [0 1 -1 0 0 0 0];

internalField   nonuniform List<vector> 
25
(
(1 2.31562e-09 -4.93507e-29)
(1 2.72168e-10 -3.23241e-23)
(1 3.73185e-09 -3.2324e-23)
(1 -1.52513e-09 -3.23241e-23)
(1 -1.09674e-09 -1.90126e-29)
(0.92 4.19168e-09 -7.11299e-37)
(0.92 5.07975e-09 2.79794e-23)
(0.92 5.14595e-09 1.06654e-28)
(0.92 2.64176e-09 -2.79796e-23)
(0.92 -4.47622e-09 -2.79796e-23)
(0.76 6.24583e-10 -2.73702e-23)
(0.76 1.17012e-08 3.87092e-28)
(0.76 -1.82756e-09 2.79794e-23)
(0.76 1.62583e-08 -5.5959e-23)
(0.76 -6.41401e-09 -5.59591e-23)
(0.52 -2.6692e-09 5.48444e-23)
(0.52 1.44933e-08 2.79799e-23)
(0.52 -8.39634e-09 -5.59589e-23)
(0.52 2.45755e-08 -2.79803e-23)
(0.52 -7.04622e-09 5.5959e-23)
(0.2 -1.54326e-09 3.93808e-23)
(0.2 5.07129e-09 1.99394e-23)
(0.2 -3.67348e-09 -5.98181e-23)
(0.2 9.81275e-09 -1.99395e-23)
(0.2 -2.17886e-09 3.98789e-23)
)
;

boundaryField
{
    top
    {
        type            fixedValue;
        value           uniform (0 0 0);
    }
    bottom
    {
        type            symmetryPlane;
    }
    inlet
    {
        type            pressureInletVelocity;
        value           nonuniform List<vector> 5((1 -0 -0) (0.92 -0 -0) (0.76 -0 -0) (0.52 -0 -0) (0.2 -0 -0));
    }
    outlet
    {
        type            inletOutlet;
        inletValue      nonuniform 0();
        value           nonuniform 0();
    }
    frontAndBack
    {
        type            empty;
    }
    procBoundary0to1
    {
        type            processor;
        value           nonuniform List<vector> 5((1 -1.10626e-09 6.46483e-23) (0.92 -1.17956e-08 -2.79794e-23) (0.76 -2.92811e-08 2.79791e-23) (0.52 -3.76348e-08 5.59584e-23) (0.2 -1.38275e-08 3.9879e-23));
    }
}


// ************************************************************************* //
