/*--------------------------------*- C++ -*----------------------------------*\
| =========                 |                                                 |
| \\      /  F ield         | OpenFOAM: The Open Source CFD Toolbox           |
|  \\    /   O peration     | Version:  5.0                                   |
|   \\  /    A nd           | Web:      www.OpenFOAM.org                      |
|    \\/     M anipulation  |                                                 |
\*---------------------------------------------------------------------------*/
FoamFile
{
    version     2.0;
    format      ascii;
    class       volVectorField;
    location    "1";
    object      U;
}
// * * * * * * * * * * * * * * * * * * * * * * * * * * * * * * * * * * * * * //

dimensions      [0 1 -1 0 0 0 0];

internalField   nonuniform List<vector> 
200
(
(3.67496e-10 2.25942e-14 -7.91478e-36)
(3.66498e-10 2.62843e-14 -5.17797e-35)
(3.66469e-10 6.11159e-15 -3.72318e-35)
(3.66294e-10 2.14112e-15 0)
(3.66358e-10 3.1219e-16 0)
(3.663e-10 9.83494e-17 3.86078e-35)
(3.66339e-10 -7.37959e-19 3.75981e-35)
(3.6631e-10 1.29047e-17 -3.94249e-35)
(3.66331e-10 -1.71026e-18 -3.75911e-35)
(3.66316e-10 1.42374e-17 0)
(3.65249e-10 6.76831e-14 -2.01454e-48)
(3.64277e-10 7.83005e-14 -1.80486e-35)
(3.64254e-10 1.79915e-14 4.24214e-36)
(3.64082e-10 6.35935e-15 -3.12255e-35)
(3.64146e-10 8.53339e-16 0)
(3.64088e-10 3.78271e-16 0)
(3.64128e-10 -2.73475e-17 -1.69685e-36)
(3.64099e-10 5.79219e-17 6.52899e-35)
(3.6412e-10 -6.28471e-18 2.54528e-36)
(3.64104e-10 8.46331e-17 -6.61162e-35)
(3.60769e-10 1.1125e-13 -9.49393e-36)
(3.59849e-10 1.27896e-13 1.66292e-34)
(3.59836e-10 2.9053e-14 3.39778e-35)
(3.5967e-10 1.04527e-14 -3.29215e-35)
(3.59735e-10 1.298e-15 -3.34509e-35)
(3.59678e-10 6.76631e-16 -1.8285e-47)
(3.59717e-10 -1.72972e-16 -8.48427e-37)
(3.59688e-10 1.15979e-16 3.47677e-35)
(3.59709e-10 -7.88947e-17 -2.54528e-36)
(3.59694e-10 2.00817e-16 -3.05111e-35)
(3.54082e-10 1.51577e-13 -1.02655e-34)
(3.53238e-10 1.73547e-13 2.5845e-34)
(3.53241e-10 3.90815e-14 -6.78623e-35)
(3.53083e-10 1.41989e-14 -4.64964e-35)
(3.53149e-10 1.63455e-15 3.34484e-35)
(3.53092e-10 9.68975e-16 3.29385e-35)
(3.53131e-10 -3.18582e-16 3.1514e-35)
(3.53102e-10 2.00124e-16 8.48427e-37)
(3.53124e-10 -2.32274e-16 -3.32024e-35)
(3.53108e-10 2.5988e-16 3.56e-35)
(3.45228e-10 1.87507e-13 3.19691e-34)
(3.44481e-10 2.13908e-13 -2.47279e-34)
(3.44505e-10 4.77165e-14 -1.01615e-34)
(3.44358e-10 1.74587e-14 -1.59504e-35)
(3.44424e-10 1.85123e-15 6.4343e-35)
(3.44368e-10 1.22988e-15 3.29385e-35)
(3.44407e-10 -4.64046e-16 0)
(3.44379e-10 2.66169e-16 8.48427e-37)
(3.444e-10 -3.45919e-16 0)
(3.44384e-10 2.84457e-16 6.61078e-35)
(3.34258e-10 2.17953e-13 -1.89676e-35)
(3.33629e-10 2.47765e-13 -3.58416e-34)
(3.33677e-10 5.46361e-14 6.5054e-35)
(3.33542e-10 2.00728e-14 8.48427e-36)
(3.33609e-10 2.03783e-15 -3.34382e-35)
(3.33555e-10 1.44719e-15 2.54528e-36)
(3.33593e-10 -5.58723e-16 8.48427e-36)
(3.33565e-10 3.42777e-16 3.39371e-36)
(3.33586e-10 -4.03332e-16 0)
(3.3357e-10 3.25744e-16 3.1357e-35)
(3.21237e-10 2.42035e-13 -1.26081e-48)
(3.20744e-10 2.74016e-13 1.80715e-34)
(3.20817e-10 5.96213e-14 -3.39371e-36)
(3.20696e-10 2.19798e-14 -1.69685e-35)
(3.20765e-10 2.10783e-15 1.69685e-36)
(3.20711e-10 1.70282e-15 -3.29359e-35)
(3.20749e-10 -5.75422e-16 -2.81211e-35)
(3.20721e-10 4.37331e-16 6.78504e-35)
(3.20742e-10 -4.8593e-16 3.49035e-35)
(3.20727e-10 3.61224e-16 -6.61095e-35)
(3.06242e-10 2.58956e-13 2.03393e-34)
(3.05897e-10 2.91792e-13 1.28589e-34)
(3.05998e-10 6.24356e-14 -3.36274e-35)
(3.05893e-10 2.31513e-14 1.86654e-35)
(3.05962e-10 2.01198e-15 3.34289e-35)
(3.0591e-10 1.84899e-15 -3.46337e-35)
(3.05947e-10 -6.16149e-16 -3.57561e-35)
(3.0592e-10 5.44194e-16 3.05307e-35)
(3.0594e-10 -5.15418e-16 3.49051e-35)
(3.05925e-10 3.76779e-16 8.48427e-37)
(2.89362e-10 2.68136e-13 -2.22158e-34)
(2.89175e-10 3.00505e-13 -2.31696e-34)
(2.89304e-10 6.3039e-14 3.35332e-35)
(2.89213e-10 2.3506e-14 9.3327e-36)
(2.89283e-10 1.82622e-15 -3.34221e-35)
(2.89232e-10 1.96027e-15 1.69685e-36)
(2.89269e-10 -6.65711e-16 3.06673e-35)
(2.89242e-10 6.09485e-16 -9.138e-47)
(2.89262e-10 -5.0517e-16 -3.32083e-35)
(2.89247e-10 3.91722e-16 6.61095e-35)
(2.70696e-10 2.69297e-13 -2.34993e-34)
(2.70671e-10 2.99823e-13 -2.30734e-34)
(2.70826e-10 6.14943e-14 3.34374e-35)
(2.70751e-10 2.31075e-14 3.6655e-47)
(2.7082e-10 1.57304e-15 -3.766e-35)
(2.70772e-10 2.01601e-15 -7.3138e-47)
(2.70808e-10 -7.0474e-16 -3.66062e-35)
(2.70782e-10 6.29222e-16 8.48427e-37)
(2.70801e-10 -5.37135e-16 6.55682e-35)
(2.70786e-10 4.08693e-16 -3.30547e-35)
(2.50355e-10 2.62343e-13 -2.22158e-34)
(2.50491e-10 2.89867e-13 0)
(2.50669e-10 5.79081e-14 5.98973e-35)
(2.50609e-10 2.20254e-14 3.96962e-35)
(2.50677e-10 1.27536e-15 -3.34136e-35)
(2.50631e-10 2.00562e-15 3.12425e-35)
(2.50666e-10 -7.65609e-16 -1.69685e-36)
(2.5064e-10 6.40229e-16 -3.64722e-35)
(2.50659e-10 -5.64303e-16 3.23607e-35)
(2.50645e-10 4.46065e-16 3.6618e-47)
(2.2846e-10 2.47413e-13 2.07798e-34)
(2.28749e-10 2.70964e-13 3.19721e-35)
(2.28945e-10 5.25091e-14 6.65048e-35)
(2.28899e-10 2.03159e-14 -3.29113e-35)
(2.28966e-10 8.85806e-16 -2.91672e-35)
(2.28922e-10 1.97505e-15 3.37886e-35)
(2.28955e-10 -8.38492e-16 5.09056e-36)
(2.28931e-10 6.95705e-16 8.48427e-37)
(2.28949e-10 -5.61178e-16 5.53057e-47)
(2.28935e-10 4.67128e-16 3.13579e-35)
(2.05141e-10 2.2509e-13 -9.42467e-36)
(2.05567e-10 2.43943e-13 -3.18678e-35)
(2.05776e-10 4.56082e-14 7.90717e-35)
(2.05742e-10 1.80239e-14 -3.39371e-36)
(2.05806e-10 4.37213e-16 -6.68136e-35)
(2.05765e-10 1.86572e-15 1.69685e-36)
(2.05796e-10 -8.76058e-16 6.78742e-36)
(2.05774e-10 7.61902e-16 -8.48427e-37)
(2.0579e-10 -5.72785e-16 3.32117e-35)
(2.05778e-10 4.17046e-16 -7.16779e-50)
(1.80536e-10 1.96391e-13 1.50358e-34)
(1.81077e-10 2.10061e-13 0)
(1.8129e-10 3.75611e-14 3.31056e-35)
(1.81267e-10 1.53398e-14 -1.69685e-36)
(1.81328e-10 -1.55781e-17 -3.34043e-35)
(1.8129e-10 1.72175e-15 -3.5488e-35)
(1.81319e-10 -8.646e-16 -7.39034e-47)
(1.81297e-10 7.43676e-16 3.39312e-35)
(1.81313e-10 -6.33241e-16 3.15131e-35)
(1.81301e-10 3.88813e-16 7.16807e-50)
(1.54792e-10 1.62688e-13 9.1012e-35)
(1.55415e-10 1.71075e-13 3.63127e-36)
(1.55625e-10 2.90241e-14 0)
(1.5561e-10 1.24152e-14 4.70972e-51)
(1.55666e-10 -4.1198e-16 4.10393e-35)
(1.55631e-10 1.55981e-15 1.63278e-50)
(1.55658e-10 -8.24166e-16 -3.71582e-47)
(1.55638e-10 7.17982e-16 3.30819e-35)
(1.55653e-10 -5.9119e-16 9.18395e-51)
(1.55642e-10 3.90614e-16 -3.30564e-35)
(1.28063e-10 1.25736e-13 -5.91294e-35)
(1.28727e-10 1.29303e-13 -3.16404e-35)
(1.28924e-10 2.05424e-14 2.89029e-50)
(1.28915e-10 9.38434e-15 -3.97225e-35)
(1.28964e-10 -6.92868e-16 -3.34034e-35)
(1.28933e-10 1.36915e-15 8.48427e-37)
(1.28957e-10 -7.71421e-16 3.67349e-47)
(1.2894e-10 6.62772e-16 3.22343e-35)
(1.28952e-10 -5.18543e-16 3.40576e-35)
(1.28943e-10 3.6899e-16 -7.16797e-50)
(1.00509e-10 8.77108e-14 -9.36835e-36)
(1.01162e-10 8.74221e-14 -3.16082e-35)
(1.01334e-10 1.26313e-14 2.6213e-35)
(1.01329e-10 6.47783e-15 6.78742e-36)
(1.0137e-10 -8.2586e-16 -7.27509e-35)
(1.01344e-10 1.10719e-15 0)
(1.01364e-10 -6.80814e-16 -8.48427e-37)
(1.0135e-10 6.13061e-16 1.69685e-36)
(1.0136e-10 -4.52186e-16 3.32091e-35)
(1.01352e-10 3.51616e-16 3.30573e-35)
(7.22957e-11 5.16772e-14 0)
(7.28725e-11 4.91203e-14 -1.66292e-34)
(7.30093e-11 6.16434e-15 -3.30921e-35)
(7.30064e-11 3.8683e-15 -1.43036e-35)
(7.30385e-11 -7.98046e-16 0)
(7.30183e-11 8.08647e-16 0)
(7.30337e-11 -5.1715e-16 3.32202e-35)
(7.30224e-11 5.29198e-16 7.36713e-47)
(7.30307e-11 -3.15022e-16 -6.48058e-50)
(7.30244e-11 2.73518e-16 2.86729e-49)
(4.35939e-11 2.24332e-14 0)
(4.40171e-11 1.97081e-14 5.14717e-34)
(4.41074e-11 1.89481e-15 -3.32015e-35)
(4.41056e-11 1.79901e-15 -2.71497e-35)
(4.41263e-11 -5.4664e-16 0)
(4.4113e-11 4.87067e-16 -3.38047e-35)
(4.41231e-11 -3.07468e-16 -1.44195e-49)
(4.41157e-11 3.12613e-16 3.30819e-35)
(4.41211e-11 -1.99341e-16 3.32066e-35)
(4.41169e-11 1.38758e-16 3.30581e-35)
(1.45773e-11 5.74977e-15 -1.29609e-35)
(1.47546e-11 4.71269e-15 1.4685e-34)
(1.47878e-11 3.32784e-16 5.68925e-35)
(1.47868e-11 4.84581e-16 -3.07756e-35)
(1.47944e-11 -1.83885e-16 -2.32013e-35)
(1.47893e-11 1.59201e-16 -3.92646e-37)
(1.47931e-11 -1.01253e-16 3.92646e-37)
(1.47903e-11 9.21049e-17 -3.92646e-37)
(1.47924e-11 -6.25658e-17 1.99941e-49)
(1.47908e-11 4.16321e-17 2.29486e-35)
)
;

boundaryField
{
    top
    {
        type            fixedValue;
        value           uniform (0 0 0);
    }
    bottom
    {
        type            symmetryPlane;
    }
    inlet
    {
        type            pressureInletVelocity;
        value           nonuniform List<vector> 
20
(
(3.6747e-10 -0 -0)
(3.65227e-10 -0 -0)
(3.60748e-10 -0 -0)
(3.54061e-10 -0 -0)
(3.45206e-10 -0 -0)
(3.34236e-10 -0 -0)
(3.21215e-10 -0 -0)
(3.0622e-10 -0 -0)
(2.8934e-10 -0 -0)
(2.70674e-10 -0 -0)
(2.50334e-10 -0 -0)
(2.28439e-10 -0 -0)
(2.05119e-10 -0 -0)
(1.80514e-10 -0 -0)
(1.5477e-10 -0 -0)
(1.28041e-10 -0 -0)
(1.00487e-10 -0 -0)
(7.22742e-11 -0 -0)
(4.35723e-11 -0 -0)
(1.45624e-11 -0 -0)
)
;
    }
    outlet
    {
        type            inletOutlet;
        inletValue      nonuniform 0();
        value           nonuniform 0();
    }
    frontAndBack
    {
        type            empty;
    }
    procBoundary0to1
    {
        type            processor;
        value           nonuniform List<vector> 
20
(
(3.66327e-10 7.15581e-18 -6.62971e-37)
(3.64115e-10 4.67232e-17 -3.31209e-35)
(3.59705e-10 4.21049e-17 3.31201e-35)
(3.53119e-10 -2.13923e-17 2.80286e-35)
(3.44395e-10 -2.41498e-17 -1.69685e-36)
(3.33581e-10 6.48681e-18 -3.56602e-35)
(3.20737e-10 -9.74834e-18 3.31141e-35)
(3.05936e-10 -4.78995e-17 2.80219e-35)
(2.89258e-10 -2.38025e-17 3.31116e-35)
(2.70796e-10 -1.97348e-17 -3.31116e-35)
(2.50655e-10 -5.08337e-17 -2.54528e-36)
(2.28944e-10 -4.84484e-17 -3.3109e-35)
(2.05786e-10 -4.90244e-17 -1.47099e-46)
(1.81309e-10 -5.82632e-17 -7.17896e-50)
(1.55649e-10 -5.15942e-17 -6.62147e-35)
(1.28949e-10 -7.10854e-17 -3.31056e-35)
(1.01358e-10 -8.93426e-17 -3.31048e-35)
(7.30288e-11 -1.02113e-16 -1.46713e-46)
(4.41199e-11 -7.54384e-17 -3.67497e-47)
(1.47918e-11 -2.968e-17 0)
)
;
    }
}


// ************************************************************************* //
