/*--------------------------------*- C++ -*----------------------------------*\
| =========                 |                                                 |
| \\      /  F ield         | OpenFOAM: The Open Source CFD Toolbox           |
|  \\    /   O peration     | Version:  5.0                                   |
|   \\  /    A nd           | Web:      www.OpenFOAM.org                      |
|    \\/     M anipulation  |                                                 |
\*---------------------------------------------------------------------------*/
FoamFile
{
    version     2.0;
    format      ascii;
    class       volVectorField;
    location    "1";
    object      U;
}
// * * * * * * * * * * * * * * * * * * * * * * * * * * * * * * * * * * * * * //

dimensions      [0 1 -1 0 0 0 0];

internalField   nonuniform List<vector> 
50
(
(1.00749 2.42347e-17 1.42527e-36)
(1.00749 -6.03544e-17 1.5429e-36)
(1.00749 -3.76977e-17 -1.34887e-36)
(1.00749 -5.91496e-17 1.07795e-37)
(1.00749 -2.84421e-17 -1.43726e-36)
(1.00749 9.54334e-17 6.76004e-51)
(1.00749 -3.36255e-17 -8.90288e-38)
(1.00749 -1.32629e-16 -1.81692e-36)
(1.00749 -7.88521e-17 -1.72607e-36)
(1.00749 -5.03845e-17 2.03494e-37)
(1.00749 1.89372e-16 3.24741e-38)
(1.00749 2.60354e-17 3.63383e-36)
(1.00749 -9.22322e-17 -7.63104e-38)
(1.00749 -4.39345e-17 1.85325e-37)
(1.00749 1.20172e-17 4.03355e-37)
(1.00749 1.94989e-16 -6.49483e-38)
(1.00749 3.30959e-17 -8.90288e-38)
(1.00749 -1.55686e-16 1.48987e-37)
(1.00749 1.05699e-17 -7.17136e-36)
(1.00749 1.26172e-16 -2.22027e-36)
(1.00749 1.71749e-16 -6.49483e-38)
(1.00749 8.40648e-17 -9.08458e-38)
(1.00749 -2.481e-16 2.1803e-37)
(1.00749 1.5662e-17 7.36214e-36)
(1.00749 2.50622e-16 -4.03355e-37)
(1.00749 1.09333e-16 6.49483e-38)
(1.00749 1.3288e-16 9.26627e-38)
(1.00749 -3.25036e-16 5.30903e-36)
(1.00749 6.17031e-17 5.45075e-36)
(1.00749 2.881e-16 2.03494e-37)
(1.00749 7.01767e-17 3.83903e-51)
(1.00749 1.51647e-16 3.58323e-68)
(1.00749 -3.67399e-16 5.45075e-36)
(1.00749 5.29686e-17 -1.09015e-35)
(1.00749 3.39801e-16 1.81692e-36)
(1.00749 1.07941e-16 1.83539e-36)
(1.00749 1.09612e-16 -1.62432e-36)
(1.00749 -3.6323e-16 6.54089e-38)
(1.00749 1.49948e-17 7.26766e-36)
(1.00749 3.68929e-16 -6.21385e-37)
(1.00749 5.90283e-17 -1.80412e-36)
(1.00749 1.04583e-16 1.91503e-36)
(1.00749 -3.66615e-16 -6.17751e-38)
(1.00749 4.01713e-17 3.63383e-36)
(1.00749 3.76685e-16 3.63383e-36)
(1.00749 2.46446e-17 6.33471e-38)
(1.00749 1.26542e-16 1.82276e-37)
(1.00749 -3.95762e-16 -1.13492e-37)
(1.00749 4.81779e-18 -2.11394e-36)
(1.00749 3.71928e-16 2.29277e-36)
)
;

boundaryField
{
    top
    {
        type            zeroGradient;
    }
    bottom
    {
        type            symmetryPlane;
    }
    inlet
    {
        type            pressureInletVelocity;
        value           nonuniform List<vector> 10((1.00749 -0 -0) (1.00749 -0 -0) (1.00749 -0 -0) (1.00749 -0 -0) (1.00749 -0 -0) (1.00749 -0 -0) (1.00749 -0 -0) (1.00749 -0 -0) (1.00749 -0 -0) (1.00749 -0 -0));
    }
    outlet
    {
        type            inletOutlet;
        inletValue      nonuniform 0();
        value           nonuniform 0();
    }
    frontAndBack
    {
        type            empty;
    }
    procBoundary0to1
    {
        type            processor;
        value           nonuniform List<vector> 10((1.00749 -1.03219e-16 -5.86403e-37) (1.00749 -2.14443e-16 3.87911e-36) (1.00749 -1.01429e-16 1.57163e-36) (1.00749 -9.73384e-17 3.14326e-36) (1.00749 -1.14437e-16 -4.90567e-37) (1.00749 -1.27367e-16 -8.20236e-49) (1.00749 -1.79336e-16 2.06038e-36) (1.00749 -3.17128e-16 -3.63383e-36) (1.00749 -3.47184e-16 1.81692e-36) (1.00749 -3.5112e-16 -4.60848e-37));
    }
}


// ************************************************************************* //
