/*--------------------------------*- C++ -*----------------------------------*\
| =========                 |                                                 |
| \\      /  F ield         | OpenFOAM: The Open Source CFD Toolbox           |
|  \\    /   O peration     | Version:  5.0                                   |
|   \\  /    A nd           | Web:      www.OpenFOAM.org                      |
|    \\/     M anipulation  |                                                 |
\*---------------------------------------------------------------------------*/
FoamFile
{
    version     2.0;
    format      ascii;
    class       volScalarField;
    location    "251";
    object      p;
}
// * * * * * * * * * * * * * * * * * * * * * * * * * * * * * * * * * * * * * //

dimensions      [0 2 -2 0 0 0 0];

internalField   nonuniform List<scalar> 
1568
(
9.3931e-15
2.32115e-14
3.93479e-14
4.25831e-14
4.89221e-14
5.70978e-14
6.0414e-14
6.42144e-14
6.8249e-14
7.15637e-14
7.4657e-14
7.78542e-14
8.10342e-14
8.4075e-14
8.70912e-14
9.01962e-14
9.3301e-14
9.6499e-14
9.97152e-14
1.03076e-13
1.06445e-13
1.09969e-13
1.13343e-13
1.15957e-13
1.17863e-13
1.20548e-13
1.24701e-13
1.30825e-13
1.37359e-13
1.43282e-13
1.47229e-13
1.49858e-13
1.51734e-13
1.54498e-13
1.57828e-13
1.61382e-13
1.64584e-13
1.68008e-13
1.71152e-13
1.74314e-13
1.7729e-13
1.80381e-13
1.8327e-13
1.86326e-13
1.8931e-13
1.92444e-13
1.95586e-13
1.98959e-13
2.02501e-13
2.06332e-13
2.10591e-13
2.15831e-13
2.21981e-13
2.28064e-13
2.3962e-13
2.5127e-13
1.90623e-14
-1.84094e-14
8.96246e-14
5.72954e-14
2.99323e-14
6.93177e-14
6.6395e-14
6.45309e-14
7.27793e-14
7.708e-14
7.87407e-14
8.158e-14
8.49418e-14
8.76084e-14
9.08081e-14
9.39899e-14
9.68701e-14
1.00163e-13
1.03288e-13
1.06569e-13
1.09484e-13
1.13099e-13
1.16123e-13
1.19944e-13
1.22944e-13
1.27066e-13
1.29903e-13
1.33212e-13
1.34143e-13
1.38778e-13
1.41743e-13
1.45677e-13
1.47513e-13
1.51871e-13
1.54426e-13
1.58849e-13
1.60759e-13
1.64886e-13
1.67115e-13
1.70354e-13
1.73094e-13
1.77133e-13
1.79439e-13
1.82531e-13
1.85034e-13
1.8855e-13
1.91419e-13
1.9499e-13
1.98277e-13
2.03016e-13
2.08095e-13
2.12416e-13
2.20292e-13
2.17965e-13
2.40622e-13
2.45477e-13
3.28976e-14
5.8811e-14
7.71813e-15
4.19219e-14
5.37812e-14
6.54934e-14
6.07679e-14
6.72191e-14
7.24729e-14
7.13081e-14
7.74695e-14
8.25963e-14
8.38236e-14
8.67122e-14
9.00979e-14
9.20447e-14
9.51026e-14
9.80196e-14
1.0123e-13
1.03925e-13
1.07199e-13
1.10509e-13
1.14661e-13
1.17845e-13
1.2181e-13
1.24301e-13
1.27862e-13
1.31532e-13
1.36086e-13
1.3888e-13
1.42491e-13
1.4666e-13
1.52862e-13
1.56067e-13
1.59155e-13
1.6155e-13
1.65564e-13
1.67477e-13
1.70702e-13
1.73581e-13
1.75287e-13
1.76098e-13
1.79828e-13
1.82468e-13
1.85917e-13
1.88876e-13
1.92129e-13
1.95651e-13
1.99266e-13
2.02691e-13
2.06084e-13
2.05901e-13
2.25553e-13
2.23745e-13
2.28637e-13
2.37368e-13
3.69881e-14
5.56092e-14
6.85952e-14
5.47757e-14
7.29419e-14
7.70328e-14
7.16136e-14
7.94256e-14
8.7323e-14
8.90928e-14
9.03173e-14
9.25232e-14
9.57406e-14
9.93952e-14
1.01216e-13
1.04353e-13
1.07159e-13
1.09341e-13
1.11232e-13
1.14457e-13
1.1666e-13
1.18875e-13
1.20517e-13
1.22912e-13
1.24739e-13
1.27528e-13
1.2995e-13
1.33165e-13
1.35848e-13
1.38972e-13
1.40994e-13
1.41842e-13
1.42412e-13
1.43993e-13
1.46714e-13
1.49222e-13
1.5175e-13
1.54683e-13
1.568e-13
1.59975e-13
1.63492e-13
1.67384e-13
1.69903e-13
1.7243e-13
1.75008e-13
1.7786e-13
1.80191e-13
1.84055e-13
1.88107e-13
1.90804e-13
1.98132e-13
2.03742e-13
2.05476e-13
2.04157e-13
2.28576e-13
2.30507e-13
4.37773e-14
3.44725e-14
5.80846e-14
5.98152e-14
7.14058e-14
7.16934e-14
7.38595e-14
8.09529e-14
8.36833e-14
8.61978e-14
8.92057e-14
9.23473e-14
9.49378e-14
9.70223e-14
9.92365e-14
1.02024e-13
1.04551e-13
1.07241e-13
1.09858e-13
1.12386e-13
1.14746e-13
1.17214e-13
1.19786e-13
1.22498e-13
1.24836e-13
1.27542e-13
1.3015e-13
1.32428e-13
1.34812e-13
1.37529e-13
1.40436e-13
1.43279e-13
1.45842e-13
1.48375e-13
1.51442e-13
1.53952e-13
1.55966e-13
1.5848e-13
1.60853e-13
1.63e-13
1.65054e-13
1.67251e-13
1.69375e-13
1.71884e-13
1.74507e-13
1.77381e-13
1.80585e-13
1.83546e-13
1.8594e-13
1.91798e-13
1.96038e-13
1.91251e-13
2.07726e-13
2.16731e-13
2.13242e-13
2.21555e-13
5.48932e-14
6.20677e-14
6.91599e-14
7.40421e-14
7.33982e-14
7.33386e-14
8.16228e-14
8.69807e-14
8.65893e-14
8.90761e-14
9.29548e-14
9.58657e-14
9.80213e-14
1.00584e-13
1.03296e-13
1.05256e-13
1.07104e-13
1.0925e-13
1.11565e-13
1.13501e-13
1.15713e-13
1.18272e-13
1.20704e-13
1.23009e-13
1.25345e-13
1.27518e-13
1.30003e-13
1.32611e-13
1.35091e-13
1.37551e-13
1.39879e-13
1.42343e-13
1.4517e-13
1.47586e-13
1.49548e-13
1.5167e-13
1.53903e-13
1.56183e-13
1.58474e-13
1.6073e-13
1.62835e-13
1.65063e-13
1.67495e-13
1.69669e-13
1.72249e-13
1.74828e-13
1.76947e-13
1.80552e-13
1.84135e-13
1.84349e-13
1.90294e-13
1.98244e-13
1.97757e-13
1.91616e-13
2.12171e-13
2.13994e-13
6.33089e-14
7.12262e-14
7.42083e-14
7.61652e-14
8.0117e-14
8.48721e-14
8.97462e-14
9.20665e-14
9.41644e-14
9.71626e-14
9.99923e-14
1.01907e-13
1.03762e-13
1.05939e-13
1.08011e-13
1.10039e-13
1.121e-13
1.13975e-13
1.15843e-13
1.17874e-13
1.19865e-13
1.21608e-13
1.23364e-13
1.25234e-13
1.27227e-13
1.29159e-13
1.31152e-13
1.33095e-13
1.35121e-13
1.37075e-13
1.3865e-13
1.40173e-13
1.42002e-13
1.43761e-13
1.45425e-13
1.47284e-13
1.49465e-13
1.51342e-13
1.53199e-13
1.55268e-13
1.57485e-13
1.59633e-13
1.61729e-13
1.63833e-13
1.66174e-13
1.68399e-13
1.70668e-13
1.7368e-13
1.75783e-13
1.79392e-13
1.84881e-13
1.81068e-13
1.91754e-13
2.01243e-13
1.99927e-13
2.045e-13
7.13808e-14
7.41981e-14
7.76726e-14
8.13886e-14
8.81322e-14
9.14279e-14
9.30013e-14
9.47841e-14
9.80258e-14
1.00315e-13
1.02638e-13
1.04644e-13
1.06641e-13
1.08546e-13
1.10287e-13
1.12117e-13
1.13964e-13
1.15699e-13
1.1742e-13
1.19168e-13
1.20829e-13
1.22548e-13
1.24226e-13
1.25956e-13
1.27666e-13
1.29459e-13
1.31144e-13
1.32863e-13
1.34687e-13
1.36456e-13
1.38408e-13
1.40315e-13
1.41818e-13
1.43468e-13
1.45421e-13
1.47187e-13
1.48771e-13
1.50439e-13
1.5206e-13
1.53758e-13
1.55424e-13
1.57037e-13
1.58727e-13
1.60588e-13
1.62549e-13
1.64503e-13
1.66334e-13
1.69286e-13
1.72123e-13
1.73227e-13
1.77238e-13
1.8172e-13
1.8416e-13
1.79002e-13
1.93571e-13
1.95916e-13
8.05754e-14
8.34839e-14
8.87573e-14
9.16048e-14
9.54902e-14
9.55514e-14
9.81434e-14
1.01018e-13
1.03168e-13
1.05286e-13
1.07173e-13
1.08456e-13
1.10373e-13
1.1226e-13
1.13759e-13
1.1522e-13
1.1665e-13
1.18162e-13
1.19667e-13
1.21029e-13
1.22452e-13
1.24151e-13
1.25617e-13
1.27063e-13
1.28556e-13
1.30043e-13
1.31533e-13
1.33069e-13
1.34589e-13
1.36032e-13
1.3765e-13
1.39254e-13
1.40806e-13
1.42299e-13
1.43809e-13
1.4522e-13
1.46603e-13
1.48034e-13
1.49522e-13
1.50982e-13
1.52434e-13
1.53981e-13
1.55558e-13
1.57068e-13
1.58754e-13
1.60625e-13
1.62492e-13
1.64639e-13
1.66122e-13
1.68626e-13
1.73214e-13
1.70311e-13
1.77186e-13
1.82493e-13
1.82942e-13
1.86313e-13
9.01676e-14
9.37297e-14
9.66904e-14
9.85559e-14
1.01834e-13
1.01788e-13
1.05464e-13
1.08033e-13
1.08702e-13
1.10517e-13
1.12426e-13
1.13715e-13
1.15109e-13
1.16489e-13
1.17634e-13
1.18986e-13
1.20211e-13
1.21367e-13
1.22515e-13
1.23905e-13
1.25e-13
1.26036e-13
1.27223e-13
1.28469e-13
1.29591e-13
1.30778e-13
1.32068e-13
1.33357e-13
1.34532e-13
1.35755e-13
1.36811e-13
1.37895e-13
1.3905e-13
1.40267e-13
1.41391e-13
1.42475e-13
1.4372e-13
1.44989e-13
1.46188e-13
1.47365e-13
1.48611e-13
1.49937e-13
1.51183e-13
1.52524e-13
1.54052e-13
1.5551e-13
1.56758e-13
1.58858e-13
1.60714e-13
1.61556e-13
1.64915e-13
1.66102e-13
1.70452e-13
1.67594e-13
1.75224e-13
1.77157e-13
9.96015e-14
1.02289e-13
1.034e-13
1.05917e-13
1.09107e-13
1.08907e-13
1.11658e-13
1.13434e-13
1.14221e-13
1.15588e-13
1.16762e-13
1.18163e-13
1.19225e-13
1.20131e-13
1.21154e-13
1.22212e-13
1.23248e-13
1.24181e-13
1.25095e-13
1.25962e-13
1.26974e-13
1.27789e-13
1.2872e-13
1.29522e-13
1.30418e-13
1.3134e-13
1.32443e-13
1.33443e-13
1.34445e-13
1.35393e-13
1.36197e-13
1.37083e-13
1.38008e-13
1.38898e-13
1.39812e-13
1.4073e-13
1.41653e-13
1.42559e-13
1.43473e-13
1.44415e-13
1.45385e-13
1.46341e-13
1.47297e-13
1.48336e-13
1.49515e-13
1.5054e-13
1.51705e-13
1.53535e-13
1.54296e-13
1.55279e-13
1.59648e-13
1.5773e-13
1.60094e-13
1.63284e-13
1.65959e-13
1.67473e-13
1.0933e-13
1.11593e-13
1.11956e-13
1.13817e-13
1.16604e-13
1.15936e-13
1.17899e-13
1.19068e-13
1.19531e-13
1.20738e-13
1.2175e-13
1.22416e-13
1.23012e-13
1.23931e-13
1.24927e-13
1.25419e-13
1.26004e-13
1.26744e-13
1.27541e-13
1.28031e-13
1.28777e-13
1.29507e-13
1.30265e-13
1.30998e-13
1.31894e-13
1.32523e-13
1.3294e-13
1.33223e-13
1.33767e-13
1.34523e-13
1.35408e-13
1.36212e-13
1.36855e-13
1.37474e-13
1.3813e-13
1.38913e-13
1.39537e-13
1.40158e-13
1.40831e-13
1.41507e-13
1.4216e-13
1.42929e-13
1.43657e-13
1.44371e-13
1.45265e-13
1.45989e-13
1.46677e-13
1.47957e-13
1.48972e-13
1.49555e-13
1.51169e-13
1.50433e-13
1.55598e-13
1.54117e-13
1.5547e-13
1.57765e-13
1.1906e-13
1.2078e-13
1.20923e-13
1.22014e-13
1.23834e-13
1.22817e-13
1.24381e-13
1.2523e-13
1.25223e-13
1.25911e-13
1.27081e-13
1.27442e-13
1.27444e-13
1.28097e-13
1.28561e-13
1.28876e-13
1.2929e-13
1.2974e-13
1.30151e-13
1.30538e-13
1.30839e-13
1.31267e-13
1.31494e-13
1.31681e-13
1.31944e-13
1.32453e-13
1.33113e-13
1.33938e-13
1.34509e-13
1.3467e-13
1.34847e-13
1.35181e-13
1.35561e-13
1.36026e-13
1.36415e-13
1.36652e-13
1.37107e-13
1.37546e-13
1.37931e-13
1.38315e-13
1.3871e-13
1.39161e-13
1.39559e-13
1.39935e-13
1.40413e-13
1.40941e-13
1.41372e-13
1.42609e-13
1.42641e-13
1.42003e-13
1.46226e-13
1.4487e-13
1.43523e-13
1.43832e-13
1.4868e-13
1.48201e-13
1.28935e-13
1.29965e-13
1.29223e-13
1.30064e-13
1.31203e-13
1.29799e-13
1.30871e-13
1.31375e-13
1.31141e-13
1.31374e-13
1.31756e-13
1.31783e-13
1.31868e-13
1.32174e-13
1.3208e-13
1.32254e-13
1.32507e-13
1.32557e-13
1.3258e-13
1.32791e-13
1.32937e-13
1.33083e-13
1.33281e-13
1.33662e-13
1.33776e-13
1.33831e-13
1.33626e-13
1.33455e-13
1.3351e-13
1.33803e-13
1.34018e-13
1.34219e-13
1.34279e-13
1.34375e-13
1.34611e-13
1.3464e-13
1.3484e-13
1.34939e-13
1.35015e-13
1.35199e-13
1.35338e-13
1.35427e-13
1.35527e-13
1.35677e-13
1.35861e-13
1.36087e-13
1.36019e-13
1.36339e-13
1.36682e-13
1.37254e-13
1.37288e-13
1.33545e-13
1.41057e-13
1.39338e-13
1.36516e-13
1.38123e-13
1.3873e-13
1.39146e-13
1.37782e-13
1.37982e-13
1.3876e-13
1.36817e-13
1.37396e-13
1.37437e-13
1.36716e-13
1.36729e-13
1.36455e-13
1.36217e-13
1.36209e-13
1.35916e-13
1.35821e-13
1.35707e-13
1.35514e-13
1.3529e-13
1.35203e-13
1.35114e-13
1.34944e-13
1.34727e-13
1.34715e-13
1.34745e-13
1.34624e-13
1.34335e-13
1.34079e-13
1.33633e-13
1.33384e-13
1.33424e-13
1.33405e-13
1.33245e-13
1.33119e-13
1.32884e-13
1.32764e-13
1.32733e-13
1.32536e-13
1.32334e-13
1.32247e-13
1.32069e-13
1.31931e-13
1.31803e-13
1.31765e-13
1.31481e-13
1.31391e-13
1.31159e-13
1.30867e-13
1.31284e-13
1.30525e-13
1.28837e-13
1.31832e-13
1.31e-13
1.28014e-13
1.23346e-13
1.30941e-13
1.28637e-13
1.48725e-13
1.49412e-13
1.4627e-13
1.45798e-13
1.4638e-13
1.43789e-13
1.43944e-13
1.43515e-13
1.42364e-13
1.42101e-13
1.41332e-13
1.40693e-13
1.40528e-13
1.39975e-13
1.39583e-13
1.39126e-13
1.38648e-13
1.383e-13
1.37889e-13
1.37362e-13
1.36921e-13
1.36628e-13
1.35992e-13
1.35264e-13
1.34689e-13
1.3434e-13
1.34354e-13
1.34404e-13
1.34113e-13
1.33499e-13
1.32751e-13
1.32262e-13
1.31946e-13
1.316e-13
1.31046e-13
1.30676e-13
1.30173e-13
1.29849e-13
1.29463e-13
1.28982e-13
1.28553e-13
1.2818e-13
1.2762e-13
1.27093e-13
1.26893e-13
1.26435e-13
1.2552e-13
1.24952e-13
1.24667e-13
1.2486e-13
1.22956e-13
1.17801e-13
1.26508e-13
1.23193e-13
1.18133e-13
1.18433e-13
1.58401e-13
1.57662e-13
1.54576e-13
1.53951e-13
1.53872e-13
1.50554e-13
1.50404e-13
1.49583e-13
1.4802e-13
1.47311e-13
1.46453e-13
1.45501e-13
1.4475e-13
1.43954e-13
1.43154e-13
1.42379e-13
1.41701e-13
1.41003e-13
1.40288e-13
1.39591e-13
1.38924e-13
1.38273e-13
1.37659e-13
1.37201e-13
1.36641e-13
1.35878e-13
1.3487e-13
1.33842e-13
1.33048e-13
1.32479e-13
1.31925e-13
1.31386e-13
1.30642e-13
1.29973e-13
1.29288e-13
1.28674e-13
1.27966e-13
1.27309e-13
1.26564e-13
1.25917e-13
1.25206e-13
1.2456e-13
1.23725e-13
1.22918e-13
1.22201e-13
1.21346e-13
1.20211e-13
1.20156e-13
1.18457e-13
1.15483e-13
1.18265e-13
1.17274e-13
1.10662e-13
1.05355e-13
1.13256e-13
1.09157e-13
1.68313e-13
1.6804e-13
1.63339e-13
1.61714e-13
1.61403e-13
1.57507e-13
1.56886e-13
1.55666e-13
1.53664e-13
1.52543e-13
1.51448e-13
1.50171e-13
1.4905e-13
1.47963e-13
1.46937e-13
1.45943e-13
1.44972e-13
1.43917e-13
1.42988e-13
1.42022e-13
1.41126e-13
1.4001e-13
1.39076e-13
1.37975e-13
1.37063e-13
1.3604e-13
1.35311e-13
1.34279e-13
1.33465e-13
1.32347e-13
1.31479e-13
1.30318e-13
1.29454e-13
1.28339e-13
1.2758e-13
1.26461e-13
1.25659e-13
1.24562e-13
1.23757e-13
1.22634e-13
1.21756e-13
1.20619e-13
1.19739e-13
1.18495e-13
1.17554e-13
1.16443e-13
1.15173e-13
1.13561e-13
1.12722e-13
1.1231e-13
1.08957e-13
1.02402e-13
1.11764e-13
1.0786e-13
9.86391e-14
9.89652e-14
1.77866e-13
1.76012e-13
1.71709e-13
1.69171e-13
1.6865e-13
1.64261e-13
1.63128e-13
1.61546e-13
1.59115e-13
1.57725e-13
1.56229e-13
1.54681e-13
1.53129e-13
1.51932e-13
1.50507e-13
1.49385e-13
1.47914e-13
1.46892e-13
1.45435e-13
1.44439e-13
1.42922e-13
1.41991e-13
1.40493e-13
1.39498e-13
1.37936e-13
1.37019e-13
1.35486e-13
1.34626e-13
1.33058e-13
1.32128e-13
1.30462e-13
1.29539e-13
1.28025e-13
1.27136e-13
1.25567e-13
1.2468e-13
1.23175e-13
1.22279e-13
1.20769e-13
1.19817e-13
1.18294e-13
1.17339e-13
1.15771e-13
1.14523e-13
1.13056e-13
1.11637e-13
1.09684e-13
1.09244e-13
1.0659e-13
1.02092e-13
1.05338e-13
1.03672e-13
9.40294e-14
8.71568e-14
9.52967e-14
9.00587e-14
1.87456e-13
1.85625e-13
1.80253e-13
1.76181e-13
1.75458e-13
1.70368e-13
1.68843e-13
1.66906e-13
1.64183e-13
1.62204e-13
1.60515e-13
1.58565e-13
1.56938e-13
1.55256e-13
1.537e-13
1.51971e-13
1.50571e-13
1.49004e-13
1.47627e-13
1.46035e-13
1.44657e-13
1.43185e-13
1.41698e-13
1.4025e-13
1.38785e-13
1.37359e-13
1.3583e-13
1.34436e-13
1.32835e-13
1.31465e-13
1.29923e-13
1.28679e-13
1.27105e-13
1.25815e-13
1.24177e-13
1.22913e-13
1.21227e-13
1.20008e-13
1.18378e-13
1.17109e-13
1.15394e-13
1.14135e-13
1.12334e-13
1.10945e-13
1.09173e-13
1.07762e-13
1.05576e-13
1.03288e-13
1.01113e-13
1.01923e-13
9.58466e-14
8.57207e-14
9.86455e-14
9.50767e-14
8.02953e-14
7.99484e-14
1.96787e-13
1.93773e-13
1.88364e-13
1.83678e-13
1.83362e-13
1.77343e-13
1.75121e-13
1.7281e-13
1.69867e-13
1.67463e-13
1.65669e-13
1.63119e-13
1.61476e-13
1.5908e-13
1.57992e-13
1.55533e-13
1.54579e-13
1.51789e-13
1.51139e-13
1.48277e-13
1.47809e-13
1.44646e-13
1.4436e-13
1.41113e-13
1.40949e-13
1.37441e-13
1.37425e-13
1.33659e-13
1.33767e-13
1.30043e-13
1.30298e-13
1.26473e-13
1.26785e-13
1.23043e-13
1.23485e-13
1.19566e-13
1.19874e-13
1.16109e-13
1.16352e-13
1.12583e-13
1.1267e-13
1.08983e-13
1.08772e-13
1.05413e-13
1.05184e-13
1.01642e-13
1.00203e-13
9.79057e-14
9.67315e-14
8.86138e-14
9.07642e-14
9.37062e-14
7.99508e-14
6.61018e-14
7.93646e-14
7.16362e-14
2.05819e-13
2.01278e-13
1.97079e-13
1.88789e-13
1.88779e-13
1.83661e-13
1.80397e-13
1.78119e-13
1.74697e-13
1.72589e-13
1.69676e-13
1.67867e-13
1.65225e-13
1.63736e-13
1.60685e-13
1.59324e-13
1.56481e-13
1.5559e-13
1.52375e-13
1.51603e-13
1.4825e-13
1.47709e-13
1.44322e-13
1.43687e-13
1.40216e-13
1.39647e-13
1.36136e-13
1.3562e-13
1.32015e-13
1.31473e-13
1.27671e-13
1.26979e-13
1.23228e-13
1.22489e-13
1.18993e-13
1.18728e-13
1.15592e-13
1.14871e-13
1.11776e-13
1.11192e-13
1.08354e-13
1.0768e-13
1.04684e-13
1.03221e-13
1.00009e-13
9.83377e-14
9.58677e-14
9.37044e-14
8.93248e-14
8.95085e-14
8.66291e-14
7.01308e-14
8.32626e-14
8.1606e-14
6.48509e-14
6.18819e-14
2.14525e-13
2.09408e-13
2.03337e-13
1.96236e-13
1.94062e-13
1.88139e-13
1.84938e-13
1.82144e-13
1.78041e-13
1.75712e-13
1.72666e-13
1.70612e-13
1.67044e-13
1.65719e-13
1.62185e-13
1.61466e-13
1.57359e-13
1.57156e-13
1.528e-13
1.53074e-13
1.4819e-13
1.49e-13
1.4348e-13
1.44855e-13
1.38976e-13
1.40808e-13
1.34571e-13
1.36782e-13
1.3008e-13
1.32552e-13
1.25523e-13
1.28274e-13
1.21248e-13
1.24253e-13
1.16981e-13
1.2002e-13
1.1251e-13
1.15745e-13
1.08927e-13
1.11714e-13
1.04631e-13
1.07305e-13
1.00654e-13
1.02512e-13
9.66426e-14
9.80185e-14
9.10522e-14
9.13663e-14
8.65057e-14
8.34473e-14
7.6682e-14
8.13845e-14
7.2852e-14
5.46365e-14
6.15885e-14
5.40178e-14
2.23313e-13
2.20081e-13
2.09823e-13
2.06711e-13
2.02404e-13
1.95283e-13
1.93231e-13
1.89019e-13
1.85542e-13
1.81946e-13
1.80294e-13
1.76103e-13
1.75045e-13
1.7088e-13
1.7056e-13
1.65761e-13
1.66084e-13
1.60376e-13
1.61512e-13
1.54957e-13
1.56879e-13
1.49532e-13
1.52003e-13
1.44039e-13
1.46911e-13
1.384e-13
1.4144e-13
1.32224e-13
1.35814e-13
1.26246e-13
1.30329e-13
1.20963e-13
1.25296e-13
1.15933e-13
1.20236e-13
1.10465e-13
1.14728e-13
1.05754e-13
1.08785e-13
1.00218e-13
1.03464e-13
9.50704e-14
9.75017e-14
9.01421e-14
9.21496e-14
8.51837e-14
8.55652e-14
8.03072e-14
7.96752e-14
7.32812e-14
7.37043e-14
6.25089e-14
5.83266e-14
6.64595e-14
4.65645e-14
4.46629e-14
2.31406e-13
2.25337e-13
2.10191e-13
2.08978e-13
2.0529e-13
1.98739e-13
1.95921e-13
1.9241e-13
1.8866e-13
1.85471e-13
1.82567e-13
1.79371e-13
1.76961e-13
1.73592e-13
1.71062e-13
1.67608e-13
1.65771e-13
1.61978e-13
1.60432e-13
1.56458e-13
1.55215e-13
1.51066e-13
1.5013e-13
1.45357e-13
1.44871e-13
1.39998e-13
1.39769e-13
1.34195e-13
1.33749e-13
1.27526e-13
1.26553e-13
1.19278e-13
1.18357e-13
1.12301e-13
1.13395e-13
1.08399e-13
1.09674e-13
1.03251e-13
1.05446e-13
1.00888e-13
1.02627e-13
9.69898e-14
9.76464e-14
9.16303e-14
9.18415e-14
8.61552e-14
8.63506e-14
8.08012e-14
7.91583e-14
7.23117e-14
7.29955e-14
6.61926e-14
6.23325e-14
5.41304e-14
4.44992e-14
3.72838e-14
2.39497e-13
2.36006e-13
2.25496e-13
2.16759e-13
2.11993e-13
2.03859e-13
1.98439e-13
1.95537e-13
1.90467e-13
1.87886e-13
1.83362e-13
1.81839e-13
1.76966e-13
1.7667e-13
1.71218e-13
1.71842e-13
1.65437e-13
1.6707e-13
1.59382e-13
1.62093e-13
1.52946e-13
1.56459e-13
1.4621e-13
1.51315e-13
1.40328e-13
1.46026e-13
1.33524e-13
1.39336e-13
1.26039e-13
1.33304e-13
1.21102e-13
1.31667e-13
1.20163e-13
1.28578e-13
1.13646e-13
1.20777e-13
1.06235e-13
1.13736e-13
1.00615e-13
1.04699e-13
9.07466e-14
9.73301e-14
8.60438e-14
9.11718e-14
8.11543e-14
8.47981e-14
7.46383e-14
7.67816e-14
6.90893e-14
6.83875e-14
5.90654e-14
5.32445e-14
5.14693e-14
4.1942e-14
3.29339e-14
2.91277e-14
2.4687e-13
2.37282e-13
2.28426e-13
2.1807e-13
2.14083e-13
2.09616e-13
2.05468e-13
2.0108e-13
1.97415e-13
1.93999e-13
1.91169e-13
1.877e-13
1.84908e-13
1.81517e-13
1.79064e-13
1.75433e-13
1.72839e-13
1.69136e-13
1.66595e-13
1.62599e-13
1.60198e-13
1.56161e-13
1.53446e-13
1.4865e-13
1.45707e-13
1.41161e-13
1.38861e-13
1.34854e-13
1.33522e-13
1.29181e-13
1.26548e-13
1.20654e-13
1.17089e-13
1.1204e-13
1.1003e-13
1.05873e-13
1.04119e-13
9.9958e-14
9.74611e-14
9.44726e-14
9.31145e-14
8.94071e-14
8.67217e-14
8.33047e-14
8.08375e-14
7.73469e-14
7.43948e-14
7.13094e-14
6.77437e-14
6.31896e-14
5.94662e-14
5.49999e-14
4.99641e-14
3.92735e-14
3.26616e-14
2.20396e-14
2.52591e-13
2.4004e-13
2.29335e-13
2.2218e-13
2.16449e-13
2.11245e-13
2.06769e-13
2.02764e-13
1.9917e-13
1.95736e-13
1.92541e-13
1.89338e-13
1.86339e-13
1.83184e-13
1.80213e-13
1.76987e-13
1.73982e-13
1.70632e-13
1.67541e-13
1.64009e-13
1.60816e-13
1.57112e-13
1.54015e-13
1.51303e-13
1.4964e-13
1.46749e-13
1.42787e-13
1.3643e-13
1.30138e-13
1.24048e-13
1.20491e-13
1.17826e-13
1.16345e-13
1.13421e-13
1.10456e-13
1.06651e-13
1.03656e-13
1.00019e-13
9.70727e-14
9.3625e-14
9.08067e-14
8.74408e-14
8.46917e-14
8.14707e-14
7.86737e-14
7.53948e-14
7.23848e-14
6.89046e-14
6.54298e-14
6.13372e-14
5.70234e-14
5.19182e-14
4.62286e-14
3.90485e-14
2.85226e-14
1.59928e-14
)
;

boundaryField
{
    top
    {
        type            zeroGradient;
    }
    bottom
    {
        type            zeroGradient;
    }
    rotatingWall
    {
        type            zeroGradient;
    }
    wall
    {
        type            zeroGradient;
    }
    frontAndBack
    {
        type            empty;
    }
}


// ************************************************************************* //
