/*--------------------------------*- C++ -*----------------------------------*\
| =========                 |                                                 |
| \\      /  F ield         | OpenFOAM: The Open Source CFD Toolbox           |
|  \\    /   O peration     | Version:  5.0                                   |
|   \\  /    A nd           | Web:      www.OpenFOAM.org                      |
|    \\/     M anipulation  |                                                 |
\*---------------------------------------------------------------------------*/
FoamFile
{
    version     2.0;
    format      ascii;
    class       volScalarField;
    location    "235";
    object      p;
}
// * * * * * * * * * * * * * * * * * * * * * * * * * * * * * * * * * * * * * //

dimensions      [0 2 -2 0 0 0 0];

internalField   nonuniform List<scalar> 
7000
(
1.63012e-07
-0.000401743
-0.000582213
-0.000585193
-0.000580239
-0.000593615
-0.0005968
-0.000582652
-0.000559144
-0.000532911
-0.000508
-0.000481837
-0.000438112
-0.00038798
3.37237e-05
-0.000389033
-0.00058386
-0.000592192
-0.000590431
-0.0006063
-0.000611912
-0.000599658
-0.000576693
-0.000548018
-0.000514725
-0.000470556
-0.000407251
-0.000345873
3.56842e-05
-0.000392355
-0.000587871
-0.000595922
-0.000597029
-0.000616223
-0.000624396
-0.000613559
-0.000589556
-0.000554947
-0.000507956
-0.000446584
-0.000375764
-0.000318431
3.48931e-05
-0.000391034
-0.000585037
-0.000594484
-0.000599214
-0.000621917
-0.000632736
-0.000623966
-0.000600539
-0.000563724
-0.000511352
-0.000443777
-0.000370177
-0.000316394
3.2379e-05
-0.000390907
-0.000582904
-0.000593359
-0.000600691
-0.000625816
-0.000638744
-0.000632139
-0.000610303
-0.000573518
-0.000519009
-0.000448092
-0.000373309
-0.000322203
2.91589e-05
-0.000390794
-0.000580331
-0.000591587
-0.000600995
-0.000628032
-0.000642854
-0.00063835
-0.000618408
-0.000582576
-0.000527504
-0.000455011
-0.000379852
-0.000330068
2.677e-05
-0.000389921
-0.000577634
-0.000590058
-0.000601292
-0.000629819
-0.000646134
-0.000643348
-0.000625173
-0.00059057
-0.000535673
-0.000462521
-0.000387222
-0.000338267
2.53631e-05
-0.000388499
-0.00057506
-0.000588855
-0.000601597
-0.000631171
-0.000648607
-0.000647257
-0.000630618
-0.000597161
-0.000542671
-0.000469334
-0.000394125
-0.000345914
2.42536e-05
-0.000386989
-0.000572782
-0.000587921
-0.000601799
-0.000632046
-0.000650379
-0.000650228
-0.000634807
-0.000602267
-0.000548168
-0.000474813
-0.000399789
-0.000352293
2.28145e-05
-0.000385796
-0.000571047
-0.000587304
-0.000601846
-0.000632481
-0.000651488
-0.000652229
-0.000637684
-0.000605806
-0.00055197
-0.000478564
-0.000403636
-0.000356728
2.09356e-05
-0.000385188
-0.000570151
-0.000587147
-0.00060179
-0.000632535
-0.000651979
-0.00065329
-0.00063928
-0.000607763
-0.000553974
-0.000480385
-0.00040539
-0.000358701
1.92777e-05
-0.00038516
-0.000570312
-0.000587548
-0.000601753
-0.000632353
-0.000651984
-0.000653513
-0.000639648
-0.000608123
-0.00055409
-0.000480136
-0.000404906
-0.000358083
1.89794e-05
-0.00038537
-0.000571615
-0.000588506
-0.000601879
-0.000632146
-0.000651641
-0.00065297
-0.000638818
-0.000606873
-0.000552259
-0.000477729
-0.00040212
-0.000355076
2.10197e-05
-0.000385662
-0.000573773
-0.000589919
-0.000602261
-0.000632012
-0.000651023
-0.000651724
-0.000636831
-0.000604017
-0.000548469
-0.000473169
-0.000397115
-0.000349862
2.53129e-05
-0.000385809
-0.000576299
-0.000591663
-0.000602864
-0.000631893
-0.000650136
-0.000649826
-0.00063372
-0.000599568
-0.000542757
-0.000466562
-0.000390061
-0.000342611
3.10428e-05
-0.000385383
-0.000578963
-0.000593744
-0.000603602
-0.000631606
-0.000648809
-0.000647172
-0.000629417
-0.000593526
-0.000535227
-0.000458122
-0.000381192
-0.00033349
3.7572e-05
-0.000384243
-0.000581537
-0.000596132
-0.000604482
-0.00063113
-0.000646953
-0.00064359
-0.000623789
-0.000585882
-0.000526055
-0.00044816
-0.000370803
-0.000322591
4.45302e-05
-0.000382285
-0.000583754
-0.000598587
-0.00060534
-0.00063034
-0.00064448
-0.000639019
-0.000616854
-0.000576811
-0.000515584
-0.000437118
-0.000359305
-0.000310228
5.19182e-05
-0.000379355
-0.000585317
-0.000600733
-0.000605777
-0.000628886
-0.000641137
-0.000633375
-0.000608789
-0.000566772
-0.000504458
-0.00042569
-0.000347388
-0.000297154
5.99451e-05
-0.000375307
-0.000585899
-0.000602181
-0.000605482
-0.000626612
-0.000636993
-0.000627029
-0.000600239
-0.000556626
-0.000493651
-0.000414836
-0.000336043
-0.000284544
6.85659e-05
-0.000370165
-0.000585242
-0.000602615
-0.000604325
-0.000623587
-0.000632418
-0.00062072
-0.000592218
-0.000547502
-0.000484268
-0.000405576
-0.000326334
-0.000273868
7.72844e-05
-0.000364346
-0.000583453
-0.000602036
-0.000602548
-0.000620348
-0.000628047
-0.000615209
-0.000585633
-0.000540341
-0.000477152
-0.000398663
-0.000319082
-0.000266156
8.49832e-05
-0.000358783
-0.000580959
-0.000600674
-0.000600632
-0.00061763
-0.000624657
-0.000611203
-0.000581141
-0.000535683
-0.000472669
-0.000394355
-0.000314553
-0.000261551
9.00513e-05
-0.000354881
-0.000578569
-0.000598964
-0.000599004
-0.000615941
-0.000622793
-0.000609172
-0.000579046
-0.000533634
-0.000470736
-0.000392443
-0.000312458
-0.000259491
9.16663e-05
-0.00035345
-0.000577027
-0.000597501
-0.000598109
-0.000615637
-0.000622793
-0.000609363
-0.000579407
-0.00053407
-0.000471092
-0.000392576
-0.000312345
-0.000259258
8.96404e-05
-0.000354428
-0.000576358
-0.000596429
-0.000597988
-0.000616626
-0.000624539
-0.000611661
-0.000582091
-0.000536855
-0.000473626
-0.000394662
-0.00031407
-0.000260681
8.44115e-05
-0.000357299
-0.000576067
-0.000595368
-0.000598247
-0.000618481
-0.00062761
-0.000615725
-0.000586909
-0.000541963
-0.000478445
-0.000398889
-0.000317931
-0.000264254
7.72172e-05
-0.000361224
-0.000575693
-0.000593966
-0.000598481
-0.00062074
-0.000631545
-0.000621206
-0.000593682
-0.00054938
-0.000485685
-0.000405494
-0.000324262
-0.000270529
6.92873e-05
-0.000365423
-0.000574971
-0.000592074
-0.000598386
-0.000622898
-0.00063579
-0.00062761
-0.000602005
-0.000558833
-0.000495221
-0.00041441
-0.000332922
-0.00027956
6.08126e-05
-0.000369578
-0.000573853
-0.000589784
-0.000597892
-0.000624725
-0.000639975
-0.000634385
-0.000611229
-0.000569727
-0.000506585
-0.000425246
-0.000343393
-0.000290554
5.18648e-05
-0.000373392
-0.000572264
-0.000587208
-0.00059715
-0.000626261
-0.000643835
-0.000640959
-0.000620604
-0.000581294
-0.000519091
-0.000437433
-0.000355027
-0.000302389
4.30138e-05
-0.000376338
-0.000570025
-0.000584502
-0.000596457
-0.000627669
-0.000647326
-0.000647024
-0.000629576
-0.000592801
-0.000532011
-0.000450359
-0.00036725
-0.000314331
3.57152e-05
-0.000377627
-0.000566918
-0.000581732
-0.000595903
-0.000629043
-0.000650534
-0.000652517
-0.000637826
-0.000603671
-0.000544647
-0.0004634
-0.000379667
-0.000326202
3.20484e-05
-0.000376487
-0.000562781
-0.00057872
-0.00059526
-0.000630194
-0.000653343
-0.000657352
-0.00064508
-0.000613378
-0.000556262
-0.00047582
-0.000391886
-0.000338136
3.36812e-05
-0.000372608
-0.000557837
-0.000575467
-0.000594229
-0.000630717
-0.000655296
-0.000661033
-0.000650782
-0.000621218
-0.00056594
-0.000486603
-0.000403133
-0.000349886
4.02255e-05
-0.000366584
-0.00055265
-0.000572197
-0.000592652
-0.000630241
-0.000655868
-0.000662924
-0.000654225
-0.000626322
-0.000572578
-0.00049444
-0.000412049
-0.000360163
4.7245e-05
-0.000360923
-0.000548272
-0.000569175
-0.000590586
-0.000628775
-0.000655002
-0.000662837
-0.000655004
-0.000628018
-0.000575239
-0.000498072
-0.000416917
-0.000366635
4.84749e-05
-0.00036007
-0.000547045
-0.000567514
-0.000588829
-0.000627014
-0.000653283
-0.000661194
-0.000653324
-0.000626235
-0.000573531
-0.000496724
-0.000416305
-0.000366824
4.34101e-05
-0.000364517
-0.000549814
-0.000568269
-0.000588299
-0.000625763
-0.000651479
-0.000658721
-0.000649892
-0.00062161
-0.000567864
-0.000490534
-0.000410052
-0.000359958
3.70068e-05
-0.000370919
-0.000555454
-0.000571616
-0.000589518
-0.000625668
-0.000650329
-0.000656228
-0.000645605
-0.000615182
-0.000559352
-0.000480601
-0.000399372
-0.000347988
3.30957e-05
-0.000377053
-0.000562851
-0.000577138
-0.000592485
-0.000626874
-0.000649993
-0.00065398
-0.000640941
-0.000607723
-0.000549172
-0.000468556
-0.000386441
-0.000334131
3.27896e-05
-0.000381653
-0.000570613
-0.000583813
-0.000596654
-0.00062904
-0.000650236
-0.000651849
-0.000635925
-0.000599611
-0.000538271
-0.000455999
-0.000373441
-0.000321043
3.62618e-05
-0.000383756
-0.00057726
-0.000590285
-0.000600941
-0.000631271
-0.000650342
-0.000649265
-0.000630246
-0.000590899
-0.000527223
-0.000443969
-0.000361558
-0.000309681
4.34169e-05
-0.000382695
-0.000581638
-0.000595344
-0.000604138
-0.000632422
-0.000649298
-0.000645455
-0.00062341
-0.000581424
-0.000516188
-0.000432767
-0.000350812
-0.000299325
5.34129e-05
-0.000378539
-0.000583362
-0.00059835
-0.000605396
-0.000631517
-0.000646216
-0.00063976
-0.000615019
-0.000571023
-0.00050509
-0.000422158
-0.000340631
-0.000288871
6.4754e-05
-0.000372205
-0.000582921
-0.000599382
-0.000604605
-0.000628415
-0.000640984
-0.000632177
-0.000605228
-0.000559943
-0.000494047
-0.00041199
-0.000330734
-0.000278149
7.59686e-05
-0.000364999
-0.000581251
-0.000599049
-0.000602343
-0.000623868
-0.000634502
-0.000623728
-0.000595106
-0.00054914
-0.000483754
-0.00040271
-0.000321665
-0.000268331
8.59333e-05
-0.000358239
-0.000579264
-0.000598215
-0.000599773
-0.000619256
-0.000628262
-0.000616019
-0.000586298
-0.000540093
-0.000475406
-0.00039532
-0.000314497
-0.000260937
9.35807e-05
-0.000353706
-0.000577454
-0.000597085
-0.000597801
-0.000615981
-0.00062374
-0.000610515
-0.000580237
-0.000534082
-0.000470042
-0.000390668
-0.000309982
-0.000256416
0.000100254
-0.000353571
-0.000576779
-0.000595632
-0.000596623
-0.000614599
-0.00062162
-0.000607791
-0.000577287
-0.000531282
-0.000467686
-0.000388704
-0.00030796
-0.000253875
-0.000399273
-0.000524648
-0.00059581
-0.000608838
-0.000613327
-0.000620388
-0.00061841
-0.000604322
-0.000582116
-0.000556426
-0.000531196
-0.000504953
-0.000462399
-0.000414613
-0.000388517
-0.000523817
-0.000596407
-0.00061278
-0.000623306
-0.000635846
-0.000637802
-0.000625546
-0.000603092
-0.000574887
-0.00054326
-0.000501795
-0.000441334
-0.000382146
-0.000390371
-0.000527139
-0.000597318
-0.000613632
-0.000626964
-0.000642328
-0.000647181
-0.000637768
-0.000616805
-0.000585363
-0.000541866
-0.000484717
-0.000418182
-0.000362407
-0.000391417
-0.000527368
-0.000595816
-0.000612761
-0.000628238
-0.000645756
-0.000652911
-0.000646281
-0.000627367
-0.000595718
-0.000549021
-0.000487254
-0.000417941
-0.000364173
-0.000392272
-0.000526699
-0.000593729
-0.000611434
-0.00062843
-0.000647397
-0.000656377
-0.000652173
-0.000635993
-0.000606339
-0.000559601
-0.000495441
-0.000424128
-0.000371771
-0.000393087
-0.000525433
-0.000591223
-0.000609828
-0.000628147
-0.000648223
-0.000658688
-0.000656614
-0.000643086
-0.000615762
-0.000569885
-0.000504651
-0.00043223
-0.00038057
-0.000393162
-0.000523422
-0.00058866
-0.000608494
-0.00062806
-0.00064902
-0.000660639
-0.00066036
-0.000649031
-0.000623759
-0.000578918
-0.000513292
-0.000440224
-0.000389012
-0.000392354
-0.000520894
-0.000586223
-0.000607449
-0.000628131
-0.000649811
-0.000662341
-0.000663493
-0.000653869
-0.00063019
-0.000586238
-0.000520544
-0.000447219
-0.000396455
-0.000391136
-0.000518318
-0.00058403
-0.000606586
-0.000628181
-0.000650426
-0.000663674
-0.000665914
-0.000657606
-0.000635128
-0.000591838
-0.000526154
-0.000452747
-0.000402414
-0.000390122
-0.000516142
-0.000582322
-0.000605932
-0.000628106
-0.000650724
-0.000664511
-0.000667574
-0.000660257
-0.000638646
-0.000595759
-0.000529977
-0.000456457
-0.000406458
-0.000389861
-0.000514775
-0.00058147
-0.000605679
-0.000627994
-0.000650784
-0.000664911
-0.000668511
-0.000661841
-0.000640746
-0.000597972
-0.000531916
-0.000458173
-0.000408313
-0.000390095
-0.000514498
-0.000581854
-0.000605988
-0.00062803
-0.000650784
-0.000665012
-0.000668813
-0.000662392
-0.000641403
-0.000598401
-0.000531866
-0.000457788
-0.000407874
-0.000390288
-0.000515616
-0.00058346
-0.000606882
-0.000628345
-0.000650845
-0.00066492
-0.000668579
-0.000661979
-0.000640634
-0.000597002
-0.000529751
-0.000455227
-0.00040521
-0.000390332
-0.000517791
-0.000585899
-0.000608335
-0.000629008
-0.000651043
-0.000664716
-0.000667894
-0.000660667
-0.000638457
-0.00059376
-0.000525562
-0.000450529
-0.000400437
-0.000389998
-0.000520167
-0.000588829
-0.000610287
-0.000630028
-0.000651421
-0.000664443
-0.000666774
-0.000658454
-0.000634851
-0.000588657
-0.000519346
-0.000443819
-0.000393661
-0.000389031
-0.000522315
-0.000592009
-0.000612633
-0.000631348
-0.000651955
-0.000664069
-0.000665129
-0.000655212
-0.000629702
-0.000581664
-0.000511197
-0.000435262
-0.000385002
-0.000387431
-0.000523986
-0.000595226
-0.000615256
-0.000632838
-0.000652459
-0.00066338
-0.000662771
-0.00065072
-0.000622845
-0.000572778
-0.000501291
-0.000425075
-0.000374512
-0.000385125
-0.00052487
-0.000598185
-0.000617872
-0.000634242
-0.000652639
-0.00066202
-0.000659366
-0.000644739
-0.000614218
-0.000562176
-0.000489975
-0.000413604
-0.000362463
-0.000381866
-0.000524673
-0.000600509
-0.000620039
-0.000635106
-0.000652094
-0.000659738
-0.000654724
-0.000637284
-0.000604135
-0.000550457
-0.000477955
-0.00040155
-0.000349562
-0.000377405
-0.000523108
-0.000601748
-0.000621345
-0.00063502
-0.000650494
-0.000656439
-0.000649016
-0.000628856
-0.000593441
-0.000538695
-0.000466306
-0.000389975
-0.000337026
-0.000371765
-0.000520073
-0.00060162
-0.000621545
-0.000633851
-0.000647867
-0.000652234
-0.000642729
-0.000620363
-0.000583361
-0.000528215
-0.000456264
-0.000380081
-0.000326427
-0.000365371
-0.0005159
-0.000600183
-0.000620631
-0.000631792
-0.000644605
-0.000647736
-0.000636735
-0.000612927
-0.000575127
-0.000520138
-0.000448804
-0.000372799
-0.000318858
-0.000359189
-0.000511352
-0.000597855
-0.000618949
-0.00062939
-0.000641399
-0.00064382
-0.000632026
-0.000607553
-0.000569588
-0.000515013
-0.00044426
-0.000368378
-0.000314419
-0.000354678
-0.000507696
-0.00059542
-0.00061704
-0.000627375
-0.000639181
-0.000641431
-0.00062944
-0.000604865
-0.000567038
-0.000512796
-0.00044234
-0.000366424
-0.000312472
-0.000353006
-0.000506084
-0.000593735
-0.000615524
-0.000626383
-0.000638656
-0.000641229
-0.000629482
-0.000605124
-0.000567446
-0.000513217
-0.000442597
-0.000366422
-0.000312324
-0.000354309
-0.000506508
-0.000592894
-0.00061459
-0.000626491
-0.000639804
-0.000643178
-0.000632121
-0.00060829
-0.00057078
-0.000516251
-0.000445016
-0.000368331
-0.000313926
-0.000357784
-0.000508167
-0.000592344
-0.000613838
-0.000627169
-0.000641997
-0.000646673
-0.000636861
-0.000614036
-0.000576943
-0.000522049
-0.000449918
-0.000372548
-0.000317784
-0.000362381
-0.00051025
-0.000591548
-0.00061277
-0.000627771
-0.000644479
-0.00065089
-0.000642929
-0.000621762
-0.000585617
-0.000530602
-0.00045753
-0.000379403
-0.00032439
-0.000367174
-0.000512168
-0.000590218
-0.00061112
-0.000627852
-0.000646611
-0.000655072
-0.000649504
-0.000630688
-0.000596184
-0.000541536
-0.000467662
-0.00038871
-0.000333777
-0.000371841
-0.000513564
-0.000588267
-0.000608905
-0.00062725
-0.000648
-0.000658713
-0.000655877
-0.000639949
-0.00060777
-0.000554116
-0.000479735
-0.000399885
-0.000345125
-0.000376178
-0.0005142
-0.000585688
-0.00060627
-0.000626134
-0.000648691
-0.00066162
-0.000661523
-0.000648747
-0.000619429
-0.000567446
-0.000493007
-0.00041223
-0.000357298
-0.000379719
-0.000513695
-0.000582444
-0.000603437
-0.000624907
-0.000649013
-0.000663801
-0.000666259
-0.000656613
-0.000630432
-0.000580695
-0.000506736
-0.000425125
-0.000369574
-0.000381629
-0.000511636
-0.0005785
-0.000600545
-0.000623792
-0.000649285
-0.000665572
-0.000670233
-0.000663418
-0.000640351
-0.000593192
-0.000520226
-0.000438058
-0.000381692
-0.000380954
-0.000507772
-0.000573825
-0.000597528
-0.00062274
-0.000649593
-0.000667102
-0.0006735
-0.000669115
-0.000648914
-0.000604354
-0.000532736
-0.000450479
-0.00039361
-0.000377172
-0.000502279
-0.000568627
-0.000594353
-0.000621517
-0.000649632
-0.00066815
-0.000675899
-0.000673495
-0.000655707
-0.000613483
-0.000543347
-0.000461538
-0.000404907
-0.000370957
-0.000496079
-0.000563567
-0.000591228
-0.000619962
-0.000649073
-0.000668373
-0.000677082
-0.000676066
-0.000660058
-0.000619693
-0.000550943
-0.000469958
-0.000414364
-0.00036535
-0.000491409
-0.000559853
-0.000588654
-0.000618293
-0.000648028
-0.000667841
-0.000677065
-0.000676694
-0.000661581
-0.000622296
-0.000554528
-0.00047438
-0.000420085
-0.000365034
-0.000491316
-0.000559342
-0.00058773
-0.000617211
-0.000646957
-0.000666914
-0.000676252
-0.000675782
-0.00066042
-0.000621052
-0.00055353
-0.000473894
-0.000420286
-0.000370335
-0.000496055
-0.000562555
-0.00058915
-0.000617336
-0.000646369
-0.000666018
-0.000675049
-0.000673824
-0.000657133
-0.000616366
-0.000548057
-0.000468347
-0.000414466
-0.00037733
-0.00050323
-0.000568481
-0.000592783
-0.00061899
-0.000646783
-0.000665662
-0.000673871
-0.00067117
-0.000652255
-0.00060899
-0.000538862
-0.000458475
-0.000403824
-0.000383225
-0.000510766
-0.00057588
-0.000598031
-0.000622046
-0.000648349
-0.000666079
-0.000672893
-0.00066805
-0.000646227
-0.000599717
-0.000527182
-0.000445913
-0.000390678
-0.000386661
-0.000517229
-0.000583447
-0.000604006
-0.000626015
-0.000650828
-0.000667105
-0.000671965
-0.00066441
-0.000639234
-0.00058922
-0.000514356
-0.00043255
-0.000377433
-0.000387068
-0.000521605
-0.000590004
-0.000609728
-0.000630113
-0.000653533
-0.000668109
-0.000670495
-0.000659819
-0.000631154
-0.000577918
-0.000501358
-0.000419665
-0.000365259
-0.000384477
-0.000523366
-0.000594771
-0.000614371
-0.000633418
-0.000655439
-0.000668091
-0.000667646
-0.000653634
-0.000621646
-0.000565921
-0.000488639
-0.000407603
-0.000353891
-0.000379496
-0.000522553
-0.00059748
-0.000617397
-0.000635128
-0.000655545
-0.000666021
-0.000662661
-0.000645393
-0.000610545
-0.000553325
-0.000476311
-0.000396185
-0.00034261
-0.000373004
-0.000519688
-0.00059831
-0.000618639
-0.000634813
-0.000653356
-0.000661603
-0.000655444
-0.000635263
-0.000598281
-0.000540564
-0.000464577
-0.000385407
-0.000331427
-0.000365853
-0.000515516
-0.000597679
-0.000618323
-0.00063264
-0.000649144
-0.000655334
-0.000646755
-0.000624273
-0.000586003
-0.000528605
-0.000454074
-0.000375866
-0.000321453
-0.000358937
-0.000510971
-0.000596135
-0.000616967
-0.000629398
-0.000643973
-0.000648423
-0.000638041
-0.000614086
-0.000575352
-0.000518821
-0.000445855
-0.000368556
-0.000314086
-0.000353478
-0.000507099
-0.000594114
-0.000615094
-0.00062622
-0.000639398
-0.000642622
-0.000631154
-0.000606526
-0.000567912
-0.000512386
-0.000440731
-0.000364106
-0.000309719
-0.000351716
-0.000505887
-0.000592549
-0.00061315
-0.000623891
-0.000636607
-0.000639291
-0.000627398
-0.000602659
-0.000564384
-0.000509631
-0.00043878
-0.000362462
-0.000307656
-0.00052727
-0.000559934
-0.000592916
-0.000614604
-0.00062745
-0.000634406
-0.000633529
-0.000623681
-0.000606261
-0.000584368
-0.000561124
-0.00053559
-0.000495261
-0.000453392
-0.00052584
-0.000562371
-0.000594803
-0.000618859
-0.000635639
-0.000646249
-0.000648082
-0.000639735
-0.000622786
-0.000600014
-0.000574534
-0.000539887
-0.000487058
-0.000434091
-0.000527039
-0.000563114
-0.000593853
-0.00061878
-0.00063803
-0.000651223
-0.000655693
-0.000649785
-0.000634126
-0.000609176
-0.000574311
-0.000527985
-0.000473074
-0.000423791
-0.000526441
-0.00056234
-0.000592431
-0.000618019
-0.000638566
-0.000653348
-0.000659571
-0.000655646
-0.00064169
-0.000617576
-0.000581749
-0.000533387
-0.000477233
-0.000429568
-0.00052509
-0.000560729
-0.000590552
-0.000616966
-0.000638404
-0.000654139
-0.000661689
-0.000659697
-0.000648351
-0.000627005
-0.00059292
-0.000543873
-0.000485728
-0.000438634
-0.000523708
-0.000558873
-0.000588572
-0.000615888
-0.000638163
-0.000654674
-0.000663367
-0.000663195
-0.000654404
-0.000635838
-0.000603548
-0.000554088
-0.000494437
-0.000447549
-0.000522103
-0.000556706
-0.000586815
-0.000615157
-0.000638236
-0.000655452
-0.000665159
-0.000666561
-0.000659871
-0.0006435
-0.000612544
-0.000562779
-0.000502119
-0.000455124
-0.000520006
-0.000554269
-0.000585258
-0.000614663
-0.0006385
-0.000656331
-0.000666871
-0.000669567
-0.000664483
-0.000649662
-0.000619572
-0.000569592
-0.000508331
-0.000461298
-0.000517825
-0.000551934
-0.000583754
-0.000614129
-0.000638672
-0.000656991
-0.000668176
-0.000671902
-0.000668049
-0.000654342
-0.000624825
-0.000574679
-0.000512977
-0.000465959
-0.000516177
-0.000550116
-0.000582428
-0.000613486
-0.000638589
-0.000657234
-0.000668888
-0.000673424
-0.000670541
-0.00065768
-0.000628534
-0.000578162
-0.000516001
-0.000468985
-0.000515571
-0.000549186
-0.000581604
-0.000612967
-0.000638327
-0.000657137
-0.000669097
-0.000674216
-0.000672049
-0.00065977
-0.000630801
-0.000580087
-0.000517432
-0.000470332
-0.000515932
-0.000549342
-0.000581585
-0.000612856
-0.000638129
-0.000656924
-0.000669012
-0.000674427
-0.000672656
-0.000660665
-0.00063162
-0.000580425
-0.000517263
-0.000469969
-0.00051694
-0.000550526
-0.000582509
-0.00061333
-0.000638206
-0.000656778
-0.000668773
-0.000674187
-0.000672465
-0.000660397
-0.000630951
-0.000579097
-0.000515404
-0.000467892
-0.000518348
-0.000552538
-0.000584289
-0.00061442
-0.000638661
-0.000656805
-0.000668489
-0.00067362
-0.000671572
-0.000658983
-0.000628744
-0.000576029
-0.000511807
-0.000464117
-0.000519974
-0.000555104
-0.000586708
-0.000616085
-0.000639559
-0.000657099
-0.000668248
-0.00067278
-0.000669991
-0.000656393
-0.00062493
-0.000571183
-0.000506485
-0.000458655
-0.000521689
-0.000557892
-0.000589498
-0.000618224
-0.000640904
-0.0006577
-0.000668056
-0.000671622
-0.000667625
-0.000652497
-0.000619395
-0.000564555
-0.000499451
-0.000451547
-0.000523308
-0.000560615
-0.000592455
-0.00062067
-0.000642549
-0.000658444
-0.000667707
-0.000669906
-0.000664198
-0.00064704
-0.000612003
-0.000556151
-0.000490773
-0.000442805
-0.000524534
-0.000562933
-0.000595345
-0.000623123
-0.000644134
-0.000658933
-0.000666783
-0.00066719
-0.0006593
-0.000639743
-0.000602697
-0.000546086
-0.000480679
-0.000432509
-0.000524974
-0.000564514
-0.000597741
-0.000625119
-0.000645145
-0.000658614
-0.000664786
-0.000663062
-0.000652673
-0.000630596
-0.000591775
-0.000534849
-0.000469796
-0.000421004
-0.000524307
-0.000564967
-0.000599148
-0.000626185
-0.000645106
-0.000657067
-0.000661374
-0.000657371
-0.000644477
-0.000620132
-0.000580089
-0.000523351
-0.000458954
-0.000409537
-0.000522368
-0.000564067
-0.000599317
-0.000626101
-0.000643859
-0.000654299
-0.000656773
-0.000650622
-0.000635549
-0.000609522
-0.000568994
-0.00051293
-0.000449376
-0.000399697
-0.000519363
-0.000562033
-0.000598298
-0.000624897
-0.000641648
-0.000650734
-0.000651663
-0.000643827
-0.000627198
-0.000600245
-0.00055989
-0.000504827
-0.000442147
-0.000392619
-0.000515981
-0.000559349
-0.000596502
-0.000623016
-0.0006391
-0.00064726
-0.00064716
-0.000638274
-0.0006208
-0.000593583
-0.000553739
-0.000499673
-0.000437692
-0.000388486
-0.000513014
-0.000556725
-0.000594445
-0.000621072
-0.000637039
-0.000644922
-0.000644443
-0.000635157
-0.00061743
-0.000590302
-0.000550905
-0.000497448
-0.00043579
-0.000386767
-0.000511189
-0.000554817
-0.000592636
-0.000619624
-0.000636119
-0.000644483
-0.000644338
-0.000635257
-0.000617688
-0.000590707
-0.000551398
-0.000497889
-0.00043604
-0.000386877
-0.000510778
-0.000553853
-0.000591311
-0.00061886
-0.000636454
-0.00064601
-0.000646893
-0.000638595
-0.000621554
-0.000594768
-0.000555197
-0.000500989
-0.000438415
-0.000388801
-0.00051138
-0.000553564
-0.000590215
-0.000618383
-0.000637473
-0.000648777
-0.000651302
-0.000644406
-0.000628406
-0.000602099
-0.000562198
-0.000506905
-0.000443231
-0.000392952
-0.000512367
-0.000553424
-0.00058893
-0.000617638
-0.000638413
-0.000651803
-0.000656461
-0.000651589
-0.000637268
-0.000611981
-0.000572031
-0.000515616
-0.000450653
-0.000399706
-0.000513186
-0.000553035
-0.000587212
-0.000616286
-0.000638703
-0.000654304
-0.000661402
-0.000659024
-0.000646993
-0.000623395
-0.000583943
-0.000526639
-0.000460316
-0.000409043
-0.000513562
-0.000552066
-0.000584898
-0.000614241
-0.000638095
-0.000655773
-0.000665302
-0.000665668
-0.000656408
-0.000635149
-0.000596885
-0.00053913
-0.000471501
-0.000420108
-0.000513393
-0.000550417
-0.000582027
-0.00061171
-0.00063678
-0.000656154
-0.000667862
-0.000670912
-0.000664623
-0.000646169
-0.000609783
-0.000552162
-0.000483444
-0.000431732
-0.000512504
-0.000547982
-0.000578778
-0.000609052
-0.000635214
-0.000655884
-0.000669303
-0.000674655
-0.000671224
-0.000655756
-0.000621782
-0.000564941
-0.000495552
-0.000443127
-0.000510609
-0.000544609
-0.000575223
-0.000606515
-0.000633891
-0.000655617
-0.000670244
-0.000677377
-0.000676377
-0.000663716
-0.000632367
-0.000576803
-0.000507207
-0.000453969
-0.000507406
-0.000540256
-0.000571296
-0.00060409
-0.000632959
-0.000655693
-0.00067117
-0.000679538
-0.000680405
-0.000670153
-0.000641275
-0.000587229
-0.000517818
-0.000464134
-0.000502904
-0.000535194
-0.000567064
-0.000601604
-0.000632109
-0.000655866
-0.000672055
-0.000681329
-0.00068357
-0.000675181
-0.000648327
-0.000595734
-0.000526762
-0.00047322
-0.000497734
-0.00053014
-0.000562998
-0.000599104
-0.000631104
-0.000655853
-0.000672699
-0.000682645
-0.000685756
-0.000678579
-0.000653152
-0.000601741
-0.000533297
-0.00048044
-0.000493708
-0.000526617
-0.00056012
-0.000597179
-0.000630231
-0.000655782
-0.000673144
-0.0006834
-0.000686759
-0.00067999
-0.000655257
-0.000604623
-0.000536678
-0.000484705
-0.000493632
-0.000526681
-0.000559952
-0.000596856
-0.000629951
-0.000655745
-0.000673382
-0.000683636
-0.000686626
-0.000679335
-0.000654305
-0.000603878
-0.000536374
-0.000484894
-0.000497974
-0.000530605
-0.000562902
-0.000598509
-0.000630456
-0.000655789
-0.000673388
-0.000683402
-0.000685615
-0.000677041
-0.000650635
-0.000599535
-0.000532151
-0.000480462
-0.000504375
-0.000536799
-0.000567989
-0.000601722
-0.000631845
-0.000656167
-0.000673319
-0.000682799
-0.000683921
-0.000673536
-0.000644885
-0.000592071
-0.000524225
-0.000471956
-0.00051088
-0.000543721
-0.000574124
-0.000605924
-0.000634086
-0.000657076
-0.000673384
-0.000681965
-0.000681681
-0.000669061
-0.000637607
-0.000582393
-0.000513609
-0.000460863
-0.000516159
-0.000550156
-0.000580357
-0.000610584
-0.000637023
-0.000658582
-0.000673661
-0.000680916
-0.000678846
-0.000663705
-0.000629223
-0.000571509
-0.00050181
-0.000449161
-0.000519417
-0.000555181
-0.000585846
-0.000615143
-0.000640277
-0.000660434
-0.000673909
-0.000679335
-0.000675044
-0.000657243
-0.000619872
-0.000560121
-0.000490003
-0.000438075
-0.000520544
-0.000558329
-0.000590058
-0.000619043
-0.000643202
-0.000661966
-0.000673542
-0.000676641
-0.000669709
-0.000649191
-0.000609371
-0.00054846
-0.000478632
-0.000427523
-0.000520004
-0.000559632
-0.0005928
-0.000621764
-0.000644981
-0.000662218
-0.00067166
-0.000672069
-0.00066225
-0.00063905
-0.000597473
-0.000536482
-0.000467608
-0.000416853
-0.000518377
-0.00055942
-0.000594093
-0.000622956
-0.000644947
-0.000660312
-0.000667385
-0.000665005
-0.000652377
-0.000626871
-0.000584399
-0.000524303
-0.000456885
-0.000406111
-0.000516075
-0.000558136
-0.00059416
-0.000622633
-0.000642986
-0.000656125
-0.000660735
-0.000655769
-0.000640737
-0.000613666
-0.000571201
-0.000512706
-0.000447027
-0.000396389
-0.000513496
-0.00055634
-0.000593389
-0.000621149
-0.000639628
-0.000650514
-0.000652887
-0.000645801
-0.000629095
-0.000601332
-0.000559618
-0.000503075
-0.00043916
-0.000389068
-0.00051118
-0.000554571
-0.000592267
-0.000619243
-0.000636086
-0.000645178
-0.000645897
-0.000637451
-0.000619891
-0.000592109
-0.000551436
-0.000496657
-0.000434158
-0.000384637
-0.000509967
-0.000553447
-0.000591179
-0.000617401
-0.000633232
-0.000641391
-0.000641383
-0.000632461
-0.000614739
-0.000587257
-0.000547451
-0.000493807
-0.000432141
-0.000382597
-0.000578122
-0.000593566
-0.000611482
-0.00062896
-0.000641073
-0.000647237
-0.000647219
-0.000640138
-0.000626148
-0.000607152
-0.000585367
-0.000559094
-0.000520645
-0.000486934
-0.000581877
-0.000599402
-0.000616016
-0.000635509
-0.000650305
-0.000658485
-0.000659707
-0.000653211
-0.000639542
-0.000620665
-0.000599202
-0.000568986
-0.00052351
-0.000479005
-0.00058305
-0.000599931
-0.000615645
-0.000636144
-0.000653631
-0.000664772
-0.00066819
-0.000662946
-0.000649241
-0.00062783
-0.000598966
-0.000561281
-0.000516459
-0.000475325
-0.000581218
-0.000598091
-0.000613826
-0.0006347
-0.000653038
-0.000665611
-0.000670247
-0.000666048
-0.000653192
-0.000632415
-0.000603331
-0.000565176
-0.0005206
-0.000481207
-0.00057815
-0.000595304
-0.000611651
-0.000633241
-0.000651957
-0.000665107
-0.000670754
-0.000668029
-0.000657497
-0.000639533
-0.000612769
-0.000574734
-0.000528251
-0.00048826
-0.000574747
-0.000592073
-0.000609251
-0.000631805
-0.000651143
-0.000664905
-0.00067157
-0.000670544
-0.000662537
-0.000647417
-0.000622561
-0.000583937
-0.000535102
-0.000494644
-0.000571228
-0.00058857
-0.00060676
-0.000630358
-0.000650482
-0.000664992
-0.0006727
-0.000673309
-0.000667438
-0.000654534
-0.00063075
-0.000591238
-0.000540472
-0.000499831
-0.000567298
-0.000584876
-0.000604216
-0.000628833
-0.000649758
-0.000664974
-0.000673638
-0.000675681
-0.00067153
-0.000660086
-0.000636823
-0.000596514
-0.000544385
-0.00050393
-0.000563372
-0.000581273
-0.000601639
-0.00062719
-0.000648818
-0.000664617
-0.000674091
-0.000677328
-0.00067449
-0.000664066
-0.00064113
-0.00060023
-0.000547092
-0.000506912
-0.000560272
-0.000578376
-0.000599363
-0.00062563
-0.000647729
-0.000663949
-0.000674053
-0.000678236
-0.000676428
-0.000666832
-0.000644122
-0.000602717
-0.000548715
-0.000508745
-0.000558603
-0.000576711
-0.000597943
-0.000624529
-0.000646795
-0.000663226
-0.000673747
-0.00067861
-0.000677604
-0.000668643
-0.000646054
-0.000604163
-0.000549409
-0.000509454
-0.000558563
-0.000576612
-0.000597778
-0.000624215
-0.00064632
-0.000662732
-0.00067342
-0.000678653
-0.000678159
-0.000669599
-0.000647011