/*--------------------------------*- C++ -*----------------------------------*\
| =========                 |                                                 |
| \\      /  F ield         | OpenFOAM: The Open Source CFD Toolbox           |
|  \\    /   O peration     | Version:  5.0                                   |
|   \\  /    A nd           | Web:      www.OpenFOAM.org                      |
|    \\/     M anipulation  |                                                 |
\*---------------------------------------------------------------------------*/
FoamFile
{
    version     2.0;
    format      ascii;
    class       volVectorField;
    location    "360";
    object      U;
}
// * * * * * * * * * * * * * * * * * * * * * * * * * * * * * * * * * * * * * //

dimensions      [0 1 -1 0 0 0 0];

internalField   nonuniform List<vector> 
7000
(
(0.00659168 -0.000690694 -0.0254557)
(0.019641 -0.00121378 -0.0068997)
(0.0242536 -0.00126827 -0.00212193)
(0.023505 -0.000995888 -0.000599977)
(0.0219933 -0.00065337 0.000237733)
(0.0206978 -0.000292942 0.000742271)
(0.0189843 0.000140627 0.00102774)
(0.0164488 0.000622533 0.00123227)
(0.0130998 0.000979572 0.00142906)
(0.00904579 0.00101136 0.00160883)
(0.00439085 0.000379645 0.00175554)
(-0.000240487 -0.00143379 0.00193111)
(-0.00124087 -0.00383377 0.00214078)
(-0.000587926 -0.0043836 0.00187341)
(0.00662688 -0.00157346 -0.0277987)
(0.0204775 -0.00246307 -0.00947775)
(0.0261764 -0.00250375 -0.00426123)
(0.026813 -0.00229555 -0.00241522)
(0.0266715 -0.00197134 -0.00130655)
(0.0266516 -0.00155756 -0.000501543)
(0.0262987 -0.00105052 9.06203e-05)
(0.0254234 -0.00044342 0.000578638)
(0.0240729 0.000221606 0.00103253)
(0.022151 0.000836267 0.00145138)
(0.0194152 0.00106797 0.00183055)
(0.0157945 0.000397737 0.00216041)
(0.0107955 -0.0021022 0.00256016)
(0.00420235 -0.00503435 0.00263576)
(0.00665358 -0.00123813 -0.0277118)
(0.0205778 -0.00197635 -0.00939542)
(0.0262187 -0.00227361 -0.00425428)
(0.0267632 -0.00242098 -0.00247778)
(0.0267032 -0.00238549 -0.00144173)
(0.0268296 -0.00219534 -0.000694743)
(0.026673 -0.00188088 -0.000148423)
(0.0260339 -0.00146072 0.00030724)
(0.024945 -0.00096378 0.000742337)
(0.0233778 -0.000490685 0.00119481)
(0.0211231 -0.000290325 0.00168422)
(0.0177511 -0.000677543 0.00218994)
(0.0128597 -0.00185013 0.00274413)
(0.00535416 -0.00264414 0.00286124)
(0.00659639 -0.00128914 -0.0276281)
(0.0204846 -0.00212624 -0.00926251)
(0.0260826 -0.002578 -0.00411994)
(0.026628 -0.00285462 -0.0023615)
(0.026623 -0.0029228 -0.00135104)
(0.0268112 -0.00283069 -0.000651612)
(0.0266952 -0.00261398 -0.000157363)
(0.0260748 -0.0022887 0.000259494)
(0.0249614 -0.00186662 0.000678919)
(0.0232731 -0.00140322 0.00115278)
(0.0207779 -0.00100172 0.0017123)
(0.0171264 -0.000792525 0.00232105)
(0.012009 -0.000780077 0.00294307)
(0.00458167 -0.000372892 0.00299269)
(0.00652939 -0.00133332 -0.027527)
(0.0203434 -0.00220331 -0.00912768)
(0.0258582 -0.00270855 -0.0039972)
(0.0263832 -0.00303484 -0.00225456)
(0.0263972 -0.00315733 -0.00127)
(0.0266337 -0.00312498 -0.000621441)
(0.0265568 -0.00297592 -0.000177511)
(0.0259671 -0.00271463 0.000196909)
(0.0248638 -0.00233666 0.000594295)
(0.0231249 -0.00186832 0.00108301)
(0.0204792 -0.00135815 0.00170524)
(0.0165852 -0.000881661 0.00240702)
(0.0112265 -0.00030291 0.00307281)
(0.00400554 0.00079794 0.00307481)
(0.00646392 -0.00138599 -0.0274175)
(0.020179 -0.00231596 -0.00899775)
(0.0255982 -0.00285108 -0.00388196)
(0.0261006 -0.00317527 -0.00216509)
(0.0261308 -0.00329385 -0.00121247)
(0.026406 -0.00326489 -0.000611404)
(0.0263653 -0.00312833 -0.000212783)
(0.0258138 -0.00288503 0.000123861)
(0.024741 -0.0025301 0.000497721)
(0.0229969 -0.00207508 0.000991987)
(0.0202812 -0.00154159 0.00165977)
(0.0162574 -0.000962302 0.00243314)
(0.0107358 -0.000128125 0.00313413)
(0.00361707 0.00134243 0.00312056)
(0.0064212 -0.00141976 -0.0273542)
(0.0200296 -0.00238234 -0.00892617)
(0.0253586 -0.00289141 -0.00382697)
(0.0258347 -0.00315616 -0.00212905)
(0.025866 -0.0032261 -0.00120256)
(0.026138 -0.00317196 -0.000634558)
(0.0261213 -0.00302586 -0.000273625)
(0.0256039 -0.00278976 3.18974e-05)
(0.0245648 -0.00246145 0.000386566)
(0.022835 -0.0020421 0.00088513)
(0.0200899 -0.00154135 0.00158778)
(0.015991 -0.000967112 0.00241687)
(0.0103627 -8.62921e-05 0.00314942)
(0.00331465 0.00150965 0.0031276)
(0.00639278 -0.00136309 -0.0273566)
(0.019905 -0.00227433 -0.00892979)
(0.0251507 -0.00271569 -0.00383607)
(0.02559 -0.00290658 -0.00215088)
(0.0256039 -0.00292568 -0.0012389)
(0.0258566 -0.00284824 -0.000690152)
(0.0258411 -0.00270114 -0.000352208)
(0.0253511 -0.00248227 -6.62317e-05)
(0.0243458 -0.00219056 0.000278849)
(0.0226399 -0.00182725 0.00078288)
(0.0198848 -0.00139787 0.00151224)
(0.0157381 -0.000897594 0.00238362)
(0.0100365 -0.000103662 0.00314114)
(0.00304018 0.00140441 0.00311232)
(0.00634604 -0.00117577 -0.0273853)
(0.0197721 -0.0019427 -0.00895818)
(0.0249501 -0.00228891 -0.00386502)
(0.0253576 -0.00240905 -0.00219069)
(0.0253515 -0.00239231 -0.00128962)
(0.025588 -0.00230739 -0.000751072)
(0.0255636 -0.00217395 -0.000424196)
(0.025102 -0.00198768 -0.000150736)
(0.0241322 -0.00174881 0.000188187)
(0.0224516 -0.00146265 0.000697245)
(0.019696 -0.00113303 0.0014468)
(0.0155192 -0.000750939 0.00234907)
(0.00976833 -0.000136993 0.00312463)
(0.00283126 0.00108596 0.00308579)
(0.00626494 -0.000874706 -0.0273956)
(0.0196133 -0.00142869 -0.00897137)
(0.0247558 -0.00166206 -0.0038795)
(0.0251539 -0.0017189 -0.00221674)
(0.0251407 -0.00168506 -0.00132539)
(0.0253736 -0.00161052 -0.000792012)
(0.0253527 -0.00150537 -0.000472697)
(0.0249175 -0.00136719 -0.000208926)
(0.0239777 -0.00119815 0.000126598)
(0.0223194 -0.00100455 0.000640097)
(0.0195681 -0.000791272 0.00140325)
(0.0153741 -0.000551733 0.00232429)
(0.00959223 -0.000175204 0.00311032)
(0.00270935 0.000619262 0.00305807)
(0.00618716 -0.000535876 -0.0273904)
(0.0194697 -0.000849631 -0.00897484)
(0.0246101 -0.000952585 -0.00387957)
(0.0250216 -0.000944868 -0.00222361)
(0.0250134 -0.000901158 -0.00133826)
(0.0252538 -0.000844938 -0.00080408)
(0.0252464 -0.000774864 -0.000489163)
(0.0248271 -0.000691257 -0.000231246)
(0.023908 -0.000597908 0.000102874)
(0.0222656 -0.000501887 0.000618666)
(0.0195193 -0.000410561 0.00138767)
(0.0153171 -0.000323455 0.00231521)
(0.00952342 -0.000207765 0.00310399)
(0.00266338 7.67291e-05 0.00304369)
(0.00613247 -0.000242428 -0.0273857)
(0.019376 -0.000328254 -0.00898132)
(0.0245438 -0.000281934 -0.00387603)
(0.0249795 -0.000200238 -0.00221682)
(0.0249822 -0.000139128 -0.00133068)
(0.0252372 -9.42852e-05 -0.000792614)
(0.0252468 -5.4354e-05 -0.000477034)
(0.0248422 -2.18109e-05 -0.000219114)
(0.023932 -6.7136e-07 0.000115215)
(0.0222943 1.347e-06 0.000631549)
(0.0195486 -2.71483e-05 0.00140012)
(0.0153428 -9.43559e-05 0.00232407)
(0.00954838 -0.000240951 0.00310863)
(0.00268168 -0.000464886 0.00304744)
(0.00611313 -1.69329e-05 -0.0273922)
(0.0193652 9.0823e-05 -0.00898399)
(0.0245735 0.000283986 -0.00387186)
(0.0250275 0.000444485 -0.00220371)
(0.0250408 0.000534843 -0.00130822)
(0.025311 0.000580986 -0.000765623)
(0.0253359 0.00060052 -0.000443622)
(0.0249354 0.000591171 -0.000179415)
(0.0240212 0.000550246 0.000157491)
(0.0223755 0.000468081 0.000674397)
(0.0196202 0.000327043 0.0014394)
(0.0154068 0.000109206 0.00235296)
(0.00961203 -0.000290491 0.0031261)
(0.00271833 -0.000959597 0.00306511)
(0.00615035 0.000167122 -0.0274156)
(0.0194658 0.000425755 -0.00899694)
(0.0247168 0.000733254 -0.00388114)
(0.0251767 0.000966942 -0.00220138)
(0.0251916 0.00109335 -0.0012918)
(0.0254675 0.00115036 -0.000740424)
(0.0254989 0.00115975 -0.000407966)
(0.0250871 0.00112056 -0.000132078)
(0.0241544 0.00102959 0.000212861)
(0.0224851 0.000874216 0.000734632)
(0.0197054 0.00062931 0.00149778)
(0.0154719 0.000268763 0.0023984)
(0.00967141 -0.000367682 0.00315458)
(0.00273458 -0.00141524 0.00308882)
(0.00623081 0.000335222 -0.0274718)
(0.0196533 0.000702417 -0.00904807)
(0.0249567 0.00108486 -0.00392017)
(0.0254156 0.00137692 -0.00222635)
(0.0254191 0.00153702 -0.00130104)
(0.0256887 0.00160807 -0.000735289)
(0.0257163 0.00161435 -0.000385503)
(0.0252802 0.0015551 -9.0096e-05)
(0.0243143 0.00142354 0.000270696)
(0.0226057 0.00120255 0.000803952)
(0.019786 0.000860904 0.00156878)
(0.0155203 0.000368509 0.00245471)
(0.00970684 -0.000483623 0.00318975)
(0.00273234 -0.00186312 0.00311426)
(0.00633104 0.000490395 -0.0275563)
(0.0198843 0.0009345 -0.00913022)
(0.0252634 0.00135945 -0.00397976)
(0.0257298 0.00169245 -0.00226484)
(0.0257152 0.00187937 -0.00132451)
(0.0259693 0.00196055 -0.000743675)
(0.0259843 0.00196175 -0.000376017)
(0.025512 0.00188466 -5.79729e-05)
(0.0244982 0.00171642 0.000325873)
(0.0227344 0.00143286 0.000877208)
(0.0198629 0.00100046 0.00164637)
(0.0155598 0.000390755 0.00251494)
(0.00973595 -0.000652279 0.00322603)
(0.00274476 -0.00232063 0.00313918)
(0.00643097 0.000620397 -0.0276411)
(0.0201241 0.00111478 -0.00921794)
(0.0256027 0.00155282 -0.00404944)
(0.0260964 0.00190889 -0.00230979)
(0.0260684 0.0021147 -0.00134616)
(0.02631 0.00220001 -0.000746944)
(0.0262902 0.00219472 -0.000355451)
(0.0257714 0.00209619 -1.07903e-05)
(0.0246994 0.00188674 0.000396107)
(0.0228707 0.00154067 0.000963334)
(0.0199455 0.00102612 0.00173113)
(0.0156121 0.000320651 0.0025741)
(0.00979527 -0.000879637 0.00325786)
(0.00280958 -0.00276953 0.00316133)
(0.00652032 0.000702587 -0.0277136)
(0.0203526 0.00121038 -0.00929767)
(0.0259537 0.00163587 -0.00411359)
(0.0264991 0.00199525 -0.00235649)
(0.0264707 0.00220541 -0.00136605)
(0.0266973 0.00228512 -0.000728981)
(0.0266387 0.00226675 -0.000297123)
(0.0260671 0.00214205 7.9359e-05)
(0.0249316 0.00188885 0.000502206)
(0.0230388 0.00148724 0.00107209)
(0.0200717 0.000910836 0.00182231)
(0.0157309 0.000144778 0.00262541)
(0.00995188 -0.00115455 0.00327801)
(0.00298444 -0.00313545 0.00317743)
(0.00659743 0.000711863 -0.0277768)
(0.0205622 0.00118176 -0.00937327)
(0.0263063 0.00156695 -0.00417239)
(0.0269268 0.00190496 -0.00239673)
(0.0269154 0.0020965 -0.00138887)
(0.0271099 0.00215955 -0.000711385)
(0.0270118 0.00211875 -0.000238744)
(0.0263904 0.00196684 0.000164657)
(0.0251944 0.00168012 0.000601103)
(0.0232504 0.00124311 0.00116614)
(0.0202648 0.000642095 0.0018883)
(0.0159491 -0.000132518 0.0026474)
(0.0102382 -0.00143375 0.00327492)
(0.00325428 -0.00330135 0.00318328)
(0.00666536 0.000635997 -0.0278481)
(0.0207552 0.00100858 -0.00945805)
(0.0266575 0.00131988 -0.00423784)
(0.0273644 0.00160668 -0.00244426)
(0.0273728 0.00175433 -0.00143038)
(0.0275344 0.00178588 -0.000731626)
(0.0273967 0.00172023 -0.000234485)
(0.0267286 0.00155016 0.000189199)
(0.0254819 0.00125458 0.000641301)
(0.0235041 0.000821931 0.00120114)
(0.020523 0.00025285 0.00189043)
(0.0162577 -0.000459618 0.00261603)
(0.0106192 -0.00163397 0.00323967)
(0.0035681 -0.00317068 0.00317712)
(0.00673084 0.000482177 -0.0279414)
(0.0209344 0.000707162 -0.00956926)
(0.0269881 0.000914062 -0.00433118)
(0.027778 0.00112354 -0.00252647)
(0.0277739 0.00121872 -0.00150378)
(0.0279015 0.00121265 -0.000787014)
(0.0277321 0.00112594 -0.000273153)
(0.027026 0.000952866 0.000159119)
(0.0257412 0.000680564 0.000613743)
(0.023746 0.000302821 0.00116179)
(0.0207846 -0.000171928 0.00182453)
(0.0165717 -0.000747296 0.00253532)
(0.0109815 -0.00167458 0.00318032)
(0.00381787 -0.00273294 0.00316427)
(0.00679751 0.000280616 -0.0280593)
(0.0210929 0.000342098 -0.00971376)
(0.0272735 0.000431652 -0.00445884)
(0.0281234 0.000549202 -0.00264353)
(0.0280983 0.000591487 -0.00161842)
(0.0281894 0.000559121 -0.000893161)
(0.0279872 0.000469083 -0.000373062)
(0.0272474 0.000318052 6.00008e-05)
(0.0259332 0.000102134 0.000510877)
(0.0239274 -0.000176553 0.00104954)
(0.0209838 -0.000507648 0.00170345)
(0.0168034 -0.000894591 0.00242572)
(0.0112262 -0.00151 0.00311526)
(0.0039278 -0.0020802 0.00315236)
(0.00685523 7.83548e-05 -0.0281785)
(0.0212141 7.66238e-06 -0.00986066)
(0.0274783 -8.78598e-06 -0.00458859)
(0.0283584 1.40795e-05 -0.00276288)
(0.0283154 7.86581e-06 -0.00174407)
(0.0283725 -3.10944e-05 -0.00102824)
(0.0281377 -9.71476e-05 -0.000515962)
(0.0273646 -0.000195678 -8.61632e-05)
(0.026026 -0.000326131 0.000361948)
(0.0240104 -0.000479001 0.000900935)
(0.0210726 -0.000650205 0.00156668)
(0.0168986 -0.000845422 0.00232281)
(0.0113082 -0.00116504 0.00306667)
(0.0039176 -0.00136347 0.00314745)
(0.00688641 -8.46504e-05 -0.0282452)
(0.0212799 -0.000230505 -0.00995195)
(0.0275726 -0.000318786 -0.00467511)
(0.0284556 -0.000372522 -0.0028451)
(0.0283953 -0.000412022 -0.00183135)
(0.0284356 -0.000439639 -0.00112832)
(0.0281808 -0.000462651 -0.000627208)
(0.0273852 -0.000490028 -0.000201878)
(0.0260305 -0.000522317 0.000247401)
(0.0240088 -0.000554022 0.000791548)
(0.0210682 -0.0005876 0.00147532)
(0.0168853 -0.000630976 0.00226478)
(0.0112759 -0.000727531 0.00304765)
(0.0038622 -0.000705729 0.00314846)
(0.00689465 -0.000200698 -0.0282445)
(0.0212966 -0.000378891 -0.00995407)
(0.0275834 -0.000506617 -0.00467869)
(0.0284622 -0.000609291 -0.00284819)
(0.0284001 -0.000664664 -0.00183232)
(0.0284513 -0.000674002 -0.00113599)
(0.0282005 -0.000653095 -0.000640763)
(0.027405 -0.000611839 -0.000216711)
(0.02605 -0.000554521 0.000230391)
(0.0240272 -0.000485812 0.000774253)
(0.0210817 -0.000412465 0.0014637)
(0.0168876 -0.000342433 0.00226295)
(0.0112627 -0.000276449 0.0030535)
(0.00384606 -0.000131621 0.00315285)
(0.00688861 -0.000296826 -0.0281931)
(0.021268 -0.000496552 -0.00988047)
(0.0275253 -0.000658973 -0.00461024)
(0.0284018 -0.000807461 -0.00278517)
(0.0283718 -0.000882868 -0.00176888)
(0.02846 -0.000886898 -0.00107079)
(0.028238 -0.000838536 -0.000575054)
(0.0274672 -0.000745349 -0.000151736)
(0.0261304 -0.000612343 0.000293566)
(0.0241148 -0.000451608 0.000836393)
(0.0211659 -0.000273937 0.00152112)
(0.0169612 -8.77595e-05 0.00230736)
(0.011326 0.000147788 0.00307872)
(0.00388621 0.000436528 0.00316499)
(0.00684797 -0.000411723 -0.0280905)
(0.0211703 -0.0006534 -0.0097544)
(0.0273639 -0.000868297 -0.00450478)
(0.0282292 -0.00108205 -0.00269416)
(0.0282491 -0.00119807 -0.00168243)
(0.0283918 -0.00121836 -0.000981776)
(0.028219 -0.00116219 -0.00048163)
(0.0274923 -0.00103417 -5.85907e-05)
(0.0261889 -0.000836234 0.000390334)
(0.0241879 -0.000580193 0.000939092)
(0.0212335 -0.000281529 0.00162166)
(0.0170103 4.94411e-05 0.00238848)
(0.0113541 0.000507795 0.00312575)
(0.00391505 0.001051 0.0031853)
(0.00677516 -0.000556641 -0.0279568)
(0.021007 -0.000874849 -0.00960419)
(0.0270958 -0.00116064 -0.00438416)
(0.0279286 -0.0014531 -0.00259243)
(0.0279973 -0.00162548 -0.00158601)
(0.0282055 -0.00167952 -0.000884273)
(0.0280937 -0.00163374 -0.000380816)
(0.027424 -0.00148755 4.48367e-05)
(0.0261646 -0.00123811 0.000499147)
(0.0241833 -0.000891252 0.00105572)
(0.0212178 -0.000465142 0.00174226)
(0.0169597 2.86e-05 0.00249449)
(0.011261 0.000745788 0.00319264)
(0.0038811 0.00165017 0.00321011)
(0.00669175 -0.000701146 -0.0278456)
(0.0208105 -0.00111524 -0.00947925)
(0.0267574 -0.0014815 -0.0042836)
(0.027532 -0.00185382 -0.00250667)
(0.027635 -0.00209073 -0.00150015)
(0.0279117 -0.00219271 -0.000804069)
(0.0278697 -0.00217374 -0.000303625)
(0.027269 -0.00202777 0.000126041)
(0.0260679 -0.00174587 0.000584154)
(0.0241199 -0.00132741 0.00114806)
(0.0211459 -0.000787084 0.00184783)
(0.0168395 -0.000139481 0.00260004)
(0.0110745 0.000820739 0.00326786)
(0.00374602 0.00212 0.00323958)
(0.00660616 -0.000801889 -0.0277585)
(0.0205978 -0.00130735 -0.00937919)
(0.0263824 -0.00175875 -0.00420013)
(0.0270852 -0.00220663 -0.00243364)
(0.0272084 -0.00250701 -0.00142468)
(0.0275553 -0.00265667 -0.000738236)
(0.0275933 -0.00267089 -0.000249606)
(0.0270759 -0.0025407 0.000170881)
(0.0259531 -0.00224932 0.000619694)
(0.0240602 -0.00179126 0.00118666)
(0.0210964 -0.00116905 0.00190733)
(0.016746 -0.000399554 0.00267815)
(0.0108999 0.000748919 0.00333597)
(0.00355858 0.00238068 0.00327282)
(0.00651699 -0.000847618 -0.0276713)
(0.0203703 -0.00143582 -0.00927481)
(0.025992 -0.00197488 -0.00410614)
(0.026629 -0.00248653 -0.0023453)
(0.0267719 -0.00283084 -0.00134152)
(0.027192 -0.0030081 -0.000678667)
(0.027312 -0.00304738 -0.000218599)
(0.0268844 -0.00293646 0.000176581)
(0.0258559 -0.00265391 0.000606452)
(0.0240423 -0.00218711 0.00116931)
(0.0211162 -0.00152657 0.00190683)
(0.0167477 -0.000682538 0.00271043)
(0.0108291 0.000583986 0.00338343)
(0.0034344 0.00244218 0.00330619)
(0.00642152 -0.000862617 -0.027556)
(0.020131 -0.00153427 -0.00913429)
(0.0256102 -0.00215333 -0.00397789)
(0.026204 -0.0026972 -0.00222801)
(0.0263778 -0.0030446 -0.001244)
(0.0268573 -0.0032177 -0.000620989)
(0.0270485 -0.00325612 -0.000208085)
(0.0267038 -0.0031501 0.000148371)
(0.0257689 -0.00287874 0.000549044)
(0.0240444 -0.00242666 0.00109709)
(0.0211749 -0.00177416 0.00184569)
(0.0168155 -0.000915896 0.00269161)
(0.0108461 0.000393327 0.00340253)
(0.00338979 0.00238559 0.00333269)
(0.00633196 -0.000881601 -0.0274165)
(0.0199058 -0.00163915 -0.0089703)
(0.0252734 -0.00230284 -0.00383135)
(0.0258512 -0.00282654 -0.00210955)
(0.026062 -0.00312691 -0.00116177)
(0.0265641 -0.0032559 -0.000581243)
(0.0267951 -0.00325254 -0.00021854)
(0.0265093 -0.00312267 9.11888e-05)
(0.0256464 -0.00285451 0.000453405)
(0.0239953 -0.00243525 0.0009787)
(0.021182 -0.0018358 0.0017347)
(0.0168416 -0.00103116 0.00262786)
(0.0108371 0.000237753 0.00339166)
(0.00335317 0.00227598 0.00334354)
(0.00627838 -0.000913953 -0.0273122)
(0.0197456 -0.00173272 -0.0088533)
(0.0250316 -0.00236655 -0.00374127)
(0.025598 -0.00280027 -0.00205736)
(0.0258235 -0.00300184 -0.0011486)
(0.0263254 -0.00304067 -0.000604183)
(0.0265383 -0.00296867 -0.000277972)
(0.0262742 -0.0027986 -9.80663e-06)
(0.0254482 -0.00253424 0.000318767)
(0.0238411 -0.00216532 0.000825512)
(0.0210643 -0.00165947 0.00159189)
(0.0167323 -0.0009751 0.00253475)
(0.0106924 0.000156838 0.00335687)
(0.0032341 0.00210418 0.00333143)
(0.00628506 -0.000894285 -0.027338)
(0.0196916 -0.00168164 -0.00888301)
(0.0249125 -0.00218791 -0.00378627)
(0.0254411 -0.00246696 -0.00212962)
(0.0256475 -0.00254422 -0.00124433)
(0.0261221 -0.00249208 -0.00071937)
(0.0263014 -0.00236077 -0.000411054)
(0.0260095 -0.00216987 -0.000156144)
(0.0251875 -0.00192722 0.000163752)
(0.0235946 -0.00162807 0.000668227)
(0.0208275 -0.00124527 0.0014507)
(0.016483 -0.000733094 0.00243929)
(0.0103997 0.00015909 0.0033123)
(0.00300988 0.00179798 0.0032986)
(0.00633217 -0.000657455 -0.0275342)
(0.0197119 -0.00123952 -0.0090873)
(0.0248788 -0.0015539 -0.00395957)
(0.0253452 -0.00167912 -0.0022952)
(0.0255052 -0.00167639 -0.0014053)
(0.0259405 -0.00159554 -0.000869522)
(0.0260859 -0.00146678 -0.000547378)
(0.0257576 -0.0013057 -0.000281573)
(0.0249166 -0.00111969 4.54968e-05)
(0.0233143 -0.000910372 0.000555973)
(0.0205326 -0.000660763 0.00135226)
(0.0161597 -0.000344356 0.00237166)
(0.0100419 0.000220051 0.00327401)
(0.00276124 0.00129094 0.00326363)
(0.00635525 -0.000172979 -0.0277274)
(0.0197048 -0.000361371 -0.00927051)
(0.0248414 -0.000455592 -0.00409145)
(0.0252567 -0.000483711 -0.00240601)
(0.0253697 -0.000478807 -0.00149824)
(0.0257689 -0.000451245 -0.000943124)
(0.0258795 -0.000400016 -0.000602494)
(0.0255056 -0.000326062 -0.000325353)
(0.0246303 -0.000238394 7.33074e-06)
(0.0230071 -0.000142381 0.000519136)
(0.0202032 -2.92986e-05 0.00132189)
(0.0158122 9.17306e-05 0.00235681)
(0.00971867 0.000275353 0.00325699)
(0.00256919 0.000560595 0.00323215)
(0.00631425 0.000331288 -0.0275883)
(0.0196362 0.000594515 -0.00910045)
(0.024742 0.000750735 -0.00395926)
(0.0251013 0.00080734 -0.00230259)
(0.0251508 0.000791392 -0.0014113)
(0.0254817 0.000744213 -0.000876446)
(0.0255209 0.00069558 -0.000557654)
(0.0250839 0.000655477 -0.000294398)
(0.0242013 0.000613529 2.77357e-05)
(0.0225946 0.000568384 0.000531455)
(0.0198296 0.00051856 0.00133738)
(0.0155285 0.000431256 0.00238127)
(0.00960024 0.000229269 0.00326292)
(0.00255219 -0.000296344 0.00322974)
(0.00622789 0.000638095 -0.0272977)
(0.0195297 0.00126384 -0.00884131)
(0.0246097 0.00169703 -0.00378438)
(0.0249658 0.00191262 -0.00216446)
(0.0250267 0.00195848 -0.00130902)
(0.0253679 0.0019089 -0.000811329)
(0.0254154 0.00180762 -0.000520664)
(0.0250128 0.00166614 -0.000271265)
(0.024189 0.00148912 4.52325e-05)
(0.0226327 0.00128106 0.000544718)
(0.0199371 0.00102126 0.0013517)
(0.0157384 0.000685799 0.00238531)
(0.00990699 0.000120323 0.00325122)
(0.00278125 -0.00101886 0.00323796)
(0.00618628 0.000755551 -0.0272369)
(0.019512 0.00159393 -0.00883487)
(0.0246171 0.00224564 -0.0037775)
(0.0250415 0.00265992 -0.00213031)
(0.0251894 0.00284663 -0.00125317)
(0.0256324 0.00287995 -0.000737347)
(0.0257919 0.0028019 -0.000437082)
(0.0255129 0.00262471 -0.00018815)
(0.0247264 0.0023637 0.000128731)
(0.0231761 0.00201869 0.000635968)
(0.0204815 0.00155874 0.00142911)
(0.016277 0.000975016 0.00241632)
(0.010384 8.03717e-05 0.00325271)
(0.00305527 -0.00147704 0.00325757)
(0.00624842 0.000847416 -0.0273838)
(0.0196607 0.00173724 -0.00898628)
(0.0248585 0.00246242 -0.00387094)
(0.0253691 0.00299859 -0.00216764)
(0.0255872 0.00330239 -0.00124248)
(0.0261086 0.00342305 -0.000680726)
(0.0263584 0.00339867 -0.000342195)
(0.0261089 0.00324648 -6.22981e-05)
(0.0252861 0.00297134 0.000279682)
(0.0236844 0.00256095 0.000804378)
(0.0209254 0.00198226 0.00158012)
(0.0166454 0.00122459 0.00250516)
(0.0106508 8.13639e-05 0.00329008)
(0.00318422 -0.00174923 0.00327545)
(0.00636569 0.000925532 -0.0275038)
(0.019908 0.00175688 -0.00907812)
(0.0252502 0.00244765 -0.00392952)
(0.025812 0.00301461 -0.00219748)
(0.0260235 0.00336851 -0.00123318)
(0.026534 0.00353686 -0.00063164)
(0.0267577 0.00356096 -0.000257368)
(0.0264497 0.00344914 6.03433e-05)
(0.0255543 0.00318923 0.000442413)
(0.0238653 0.00276262 0.000989687)
(0.0210095 0.00213619 0.00175136)
(0.0166438 0.0012923 0.00261823)
(0.0105995 2.44549e-06 0.00333926)
(0.00314521 -0.00199458 0.00327882)
(0.00646039 0.000944155 -0.0275543)
(0.0201583 0.00168957 -0.00911404)
(0.0256481 0.00231265 -0.00395563)
(0.0262255 0.00286033 -0.00221408)
(0.0263735 0.003219 -0.00123362)
(0.0268147 0.00340036 -0.00060707)
(0.0269575 0.0034467 -0.000192402)
(0.0265653 0.00335019 0.000167007)
(0.025575 0.00309324 0.000584112)
(0.02378 0.002654 0.00115097)
(0.0208279 0.00200409 0.0019017)
(0.0164046 0.00112862 0.00271781)
(0.0103871 -0.000228555 0.00337583)
(0.00307034 -0.00230802 0.00326869)
(0.00652903 0.000919617 -0.0276204)
(0.0203889 0.0015806 -0.00918872)
(0.0260115 0.00213638 -0.00402075)
(0.0266096 0.0026472 -0.00227113)
(0.0266988 0.00298581 -0.00127468)
(0.0270603 0.00315357 -0.000617698)
(0.0271236 0.00318458 -0.000158589)
(0.0266414 0.00307028 0.000241553)
(0.0255498 0.00278847 0.000684333)
(0.0236532 0.00232323 0.00126224)
(0.0206319 0.00165685 0.00200045)
(0.0161948 0.000787958 0.00277225)
(0.0102686 -0.000566884 0.00338265)
(0.00311468 -0.00263394 0.00325204)
(0.00660134 0.000864286 -0.0277259)
(0.0206159 0.00143165 -0.00931847)
(0.0263811 0.00191646 -0.00413379)
(0.0270359 0.00237297 -0.00236495)
(0.0271056 0.0026646 -0.00135136)
(0.0273986 0.00279599 -0.000658481)
(0.0273858 0.00278976 -0.000161811)
(0.0268171 0.00263981 0.000268114)
(0.0256319 0.0023256 0.000728878)
(0.0236576 0.00183959 0.00130768)
(0.0206056 0.00118229 0.00202454)
(0.0161995 0.000363679 0.00275859)
(0.0103905 -0.000915013 0.00334782)
(0.00331109 -0.00281416 0.00322856)
(0.0066904 0.000757954 -0.0278533)
(0.0208446 0.00120602 -0.00947271)
(0.0267743 0.00160068 -0.00426102)
(0.0275181 0.00197992 -0.0024688)
(0.0275906 0.00220064 -0.0014495)
(0.0278204 0.00227969 -0.000733458)
(0.0277335 0.00223134 -0.000212246)
(0.0270857 0.00205119 0.000235196)
(0.0258254 0.00172697 0.000707814)
(0.0238033 0.00125793 0.00128059)
(0.0207548 0.000660953 0.0019686)
(0.0164109 -5.2734e-05 0.00267873)
(0.0107023 -0.00116175 0.00327948)
(0.00359209 -0.00270935 0.00320132)
(0.00678982 0.000588129 -0.0279916)
(0.0210659 0.000889928 -0.00963217)
(0.0271629 0.00117397 -0.00439318)
(0.0279933 0.00145807 -0.00258543)
(0.0280381 0.00160657 -0.00155779)
(0.0282067 0.00163091 -0.000827003)
(0.0280576 0.00155019 -0.00029623)
(0.027346 0.00136251 0.000152045)
(0.0260315 0.0010659 0.00062283)
(0.0239865 0.000665632 0.00118313)
(0.0209613 0.000184323 0.00184941)
(0.0166804 -0.000370833 0.00255751)
(0.0110323 -0.00122245 0.00319706)
(0.00382074 -0.00229703 0.00317701)
(0.00688171 0.000385212 -0.0281366)
(0.0212545 0.000554754 -0.00979659)
(0.0274903 0.000724497 -0.00453017)
(0.0283734 0.000902223 -0.00270679)
(0.0283779 0.000983157 -0.00167871)
(0.0284842 0.000971395 -0.0009496)
(0.0282775 0.000882951 -0.000423903)
(0.0275148 0.000718884 1.7752e-05)
(0.0261632 0.000485094 0.000479309)
(0.024107 0.000194454 0.0010299)
(0.0211056 -0.000134877 0.00169228)
(0.0168663 -0.000499533 0.00242316)
(0.0112397 -0.00105467 0.00312024)
(0.00389922 -0.00168301 0.00315954)
(0.00695206 0.00016335 -0.0282349)
(0.0213862 0.000277458 -0.00991774)
(0.027691 0.00037403 -0.00463761)
(0.0285843 0.0004516 -0.00280582)
(0.0285564 0.000476801 -0.00178832)
(0.028613 0.000455003 -0.00107356)
(0.0283592 0.000387829 -0.000558729)
(0.0275558 0.000276461 -0.00012508)
(0.0261818 0.000128349 0.000329786)
(0.0241257 -3.94243e-05 0.000876056)
(0.0211438 -0.000216778 0.00154866)
(0.0169292 -0.000404681 0.00231443)
(0.0113073 -0.000694917 0.00306871)
(0.00389257 -0.00101951 0.00315511)
(0.00705986 2.20586e-05 -0.0281225)
(0.0215873 7.75902e-05 -0.00984729)
(0.0278499 0.000116602 -0.00461057)
(0.0287148 0.000132999 -0.00279902)
(0.028661 0.000134429 -0.00179831)
(0.0286892 0.000124586 -0.00110757)
(0.0284025 0.000100135 -0.000613558)
(0.0275722 6.05747e-05 -0.000190107)
(0.0261848 1.0446e-05 0.000257409)
(0.0241305 -4.27466e-05 0.000799821)
(0.0211615 -9.62483e-05 0.00147974)
(0.0169611 -0.000151225 0.00226648)
(0.011329 -0.000238525 0.00305333)
(0.00390821 -0.000346206 0.00316883)
(0.00179911 -0.000707281 -0.0185492)
(0.00915875 -0.000666691 0.000583706)
(0.0128313 -0.000671874 0.00307373)
(0.0137515 -0.000640137 0.00310196)
(0.0141583 -0.000476968 0.00336559)
(0.0143205 -0.000264023 0.00358072)
(0.0137764 0.000144731 0.00365805)
(0.0122256 0.000750008 0.00373436)
(0.00973092 0.00120416 0.00394471)
(0.00640248 0.00126061 0.00424821)
(0.00248266 0.000609762 0.00467343)
(-0.00149201 -0.0014045 0.00536592)
(-0.00194145 -0.0035796 0.00599264)
(-0.000942904 -0.00385514 0.00511347)
(0.00109787 -0.00201629 -0.0214451)
(0.00869407 -0.0025766 -0.00296022)
(0.0125008 -0.0026597 -3.99366e-06)
(0.0139127 -0.00257018 0.000848142)
(0.0152886 -0.00224798 0.00180466)
(0.0167518 -0.00172512 0.0025128)
(0.0177449 -0.0010495 0.00300231)
(0.0181719 -0.000247719 0.00350543)
(0.0180382 0.000631044 0.00410683)
(0.0171626 0.00140712 0.00477477)
(0.0153202 0.00162249 0.00550968)
(0.0126912 0.000847718 0.00624013)
(0.00862436 -0.00173783 0.0072439)
(0.00328907 -0.00462163 0.00732953)
(0.000948321 -0.00249327 -0.0209688)
(0.00854215 -0.00350813 -0.00278937)
(0.012043 -0.0038102 -0.000436762)
(0.0132425 -0.00382767 4.49983e-05)
(0.0144344 -0.00360753 0.000941706)
(0.0158322 -0.00318773 0.00167517)
(0.0168853 -0.00261833 0.00220013)
(0.0174727 -0.0019162 0.00274139)
(0.0176489 -0.001111 0.00340381)
(0.017393 -0.000327629 0.00419918)
(0.0164351 0.000106822 0.00515043)
(0.0142649 -0.000195922 0.00627547)
(0.0105211 -0.00139367 0.00770027)
(0.00436561 -0.0022573 0.00793184)
(0.00086937 -0.00290522 -0.0209109)
(0.00835433 -0.004216 -0.00274547)
(0.0116416 -0.00458716 -0.00058881)
(0.0127285 -0.00455234 -0.000282977)
(0.0138723 -0.00427761 0.000482054)
(0.0151727 -0.00385828 0.00114311)
(0.0161224 -0.00333145 0.00162369)
(0.0166212 -0.00269476 0.00215177)
(0.0167232 -0.00196229 0.00286046)
(0.0163504 -0.00119938 0.00379889)
(0.015264 -0.000552948 0.00501507)
(0.013083 -0.000217252 0.00649876)
(0.00941913 -0.000253365 0.00817651)
(0.00358054 -3.88089e-05 0.00827218)
(0.000780865 -0.00311442 -0.0207505)
(0.00813032 -0.00455739 -0.00262572)
(0.0112028 -0.0049014 -0.000730706)
(0.0121891 -0.00475866 -0.000598855)
(0.0133097 -0.00438767 4.30237e-05)
(0.0145303 -0.00392967 0.000609723)
(0.0153724 -0.00342119 0.00104027)
(0.0157865 -0.00283475 0.00154563)
(0.0158425 -0.00215876 0.00228836)
(0.0154536 -0.00142174 0.00336665)
(0.014345 -0.000715039 0.00484772)
(0.0121114 -0.000182017 0.00665918)
(0.00841307 0.000270148 0.00850289)
(0.0029767 0.00111212 0.00847514)
(0.000709267 -0.00315149 -0.0205466)
(0.00789766 -0.00463649 -0.00254399)
(0.0107621 -0.00488706 -0.000941833)
(0.0116601 -0.00461013 -0.000932798)
(0.0127657 -0.00413439 -0.000359094)
(0.0139234 -0.0036303 0.000151569)
(0.0146974 -0.00311124 0.000527124)
(0.0150551 -0.00255996 0.00102371)
(0.0151006 -0.00195059 0.0018014)
(0.0147393 -0.0013047 0.00298519)
(0.0136684 -0.00068773 0.00466498)
(0.0114445 -0.000175082 0.00670958)
(0.00773135 0.000456935 0.00865662)
(0.00255689 0.00163455 0.00856282)
(0.000695604 -0.00304635 -0.0204585)
(0.00767 -0.00446249 -0.00266895)
(0.01036 -0.00458441 -0.00125438)
(0.01118 -0.00417813 -0.00130827)
(0.0122504 -0.00361977 -0.000753861)
(0.0133732 -0.00308073 -0.000264625)
(0.0140884 -0.00256613 0.000103973)
(0.0144103 -0.00205376 0.000603372)
(0.0144593 -0.00152634 0.00140886)
(0.0141394 -0.00100421 0.00266772)
(0.0131185 -0.000539406 0.00448359)
(0.0109166 -0.000148668 0.00668132)
(0.00720104 0.000472091 0.00869489)
(0.00222239 0.00176529 0.00855044)
(0.000718777 -0.00282038 -0.0205189)
(0.0074907 -0.00403063 -0.00289909)
(0.0100184 -0.00401924 -0.00161417)
(0.0107512 -0.00352389 -0.00169697)
(0.0117674 -0.00293067 -0.00112593)
(0.0128519 -0.00239306 -0.000623188)
(0.0135352 -0.00190888 -0.000245711)
(0.0138311 -0.00145431 0.000256074)
(0.0138829 -0.00102166 0.0010826)
(0.0136059 -0.00063489 0.00240494)
(0.0126344 -0.000338631 0.00431969)
(0.0104559 -0.000106746 0.00662018)
(0.00674503 0.000395477 0.00867086)
(0.00192114 0.00161364 0.00847281)
(0.000707798 -0.00247244 -0.0206178)
(0.00733801 -0.00334576 -0.00311154)
(0.00972704 -0.00320231 -0.0019527)
(0.0103834 -0.00268189 -0.00205043)
(0.0113487 -0.00211876 -0.00144324)
(0.0123938 -0.00162907 -0.000912283)