/*--------------------------------*- C++ -*----------------------------------*\
| =========                 |                                                 |
| \\      /  F ield         | OpenFOAM: The Open Source CFD Toolbox           |
|  \\    /   O peration     | Version:  5.0                                   |
|   \\  /    A nd           | Web:      www.OpenFOAM.org                      |
|    \\/     M anipulation  |                                                 |
\*---------------------------------------------------------------------------*/
FoamFile
{
    version     2.0;
    format      ascii;
    class       volScalarField;
    location    "294";
    object      p;
}
// * * * * * * * * * * * * * * * * * * * * * * * * * * * * * * * * * * * * * //

dimensions      [0 2 -2 0 0 0 0];

internalField   nonuniform List<scalar> 
1568
(
8.60538e-16
3.6381e-15
6.40613e-15
7.48626e-15
8.77914e-15
1.01345e-14
1.09233e-14
1.17472e-14
1.25532e-14
1.32561e-14
1.39193e-14
1.45815e-14
1.52383e-14
1.58783e-14
1.65198e-14
1.71746e-14
1.78362e-14
1.85134e-14
1.92016e-14
1.99112e-14
2.06306e-14
2.13719e-14
2.20927e-14
2.2642e-14
2.30533e-14
2.36034e-14
2.44753e-14
2.57522e-14
2.71745e-14
2.84477e-14
2.93168e-14
2.98761e-14
3.02855e-14
3.08404e-14
3.15572e-14
3.23045e-14
3.30097e-14
3.37289e-14
3.44125e-14
3.50893e-14
3.57439e-14
3.6402e-14
3.70353e-14
3.76829e-14
3.83254e-14
3.89867e-14
3.96601e-14
4.03772e-14
4.11326e-14
4.19508e-14
4.28791e-14
4.39632e-14
4.52129e-14
4.66167e-14
4.89818e-14
5.15591e-14
2.44374e-15
6.25577e-16
1.16482e-14
9.12519e-15
7.11594e-15
1.1753e-14
1.18115e-14
1.209e-14
1.33664e-14
1.41423e-14
1.465e-14
1.52773e-14
1.59623e-14
1.6554e-14
1.72059e-14
1.78538e-14
1.84768e-14
1.91379e-14
1.97978e-14
2.04763e-14
2.1134e-14
2.18567e-14
2.25511e-14
2.3369e-14
2.41129e-14
2.49255e-14
2.5638e-14
2.62925e-14
2.66005e-14
2.73808e-14
2.80875e-14
2.88675e-14
2.94796e-14
3.03616e-14
3.10235e-14
3.18366e-14
3.23917e-14
3.31672e-14
3.3746e-14
3.44097e-14
3.50377e-14
3.578e-14
3.63454e-14
3.69881e-14
3.75808e-14
3.8277e-14
3.89312e-14
3.96727e-14
4.0381e-14
4.13103e-14
4.23801e-14
4.33208e-14
4.47349e-14
4.5324e-14
4.88465e-14
5.02888e-14
4.67029e-15
8.30204e-15
3.23085e-15
8.47117e-15
1.05298e-14
1.16936e-14
1.16539e-14
1.30244e-14
1.38733e-14
1.39983e-14
1.50821e-14
1.59526e-14
1.63274e-14
1.69444e-14
1.76165e-14
1.81053e-14
1.87267e-14
1.93404e-14
1.99839e-14
2.05681e-14
2.12203e-14
2.18793e-14
2.26285e-14
2.32758e-14
2.39851e-14
2.45222e-14
2.52434e-14
2.60233e-14
2.68982e-14
2.75665e-14
2.82863e-14
2.9003e-14
2.99531e-14
3.05943e-14
3.12302e-14
3.17941e-14
3.25456e-14
3.30404e-14
3.36967e-14
3.43181e-14
3.47938e-14
3.51697e-14
3.58859e-14
3.64618e-14
3.71347e-14
3.77704e-14
3.84482e-14
3.91661e-14
3.99652e-14
4.0785e-14
4.15294e-14
4.20256e-14
4.48934e-14
4.52261e-14
4.68996e-14
4.86147e-14
5.91422e-15
8.36411e-15
1.11915e-14
1.02013e-14
1.25177e-14
1.32348e-14
1.32576e-14
1.46004e-14
1.57057e-14
1.62179e-14
1.66974e-14
1.722e-14
1.78598e-14
1.85465e-14
1.90033e-14
1.9621e-14
2.01999e-14
2.07042e-14
2.11815e-14
2.18189e-14
2.23452e-14
2.28738e-14
2.33426e-14
2.38959e-14
2.43726e-14
2.49611e-14
2.55312e-14
2.62003e-14
2.68236e-14
2.75061e-14
2.8063e-14
2.84437e-14
2.87888e-14
2.92578e-14
2.98613e-14
3.04114e-14
3.09711e-14
3.15745e-14
3.20733e-14
3.26786e-14
3.334e-14
3.40428e-14
3.4582e-14
3.51322e-14
3.57089e-14
3.63182e-14
3.68813e-14
3.76623e-14
3.84339e-14
3.90509e-14
4.04418e-14
4.15681e-14
4.20362e-14
4.2529e-14
4.62272e-14
4.70787e-14
7.48972e-15
7.0966e-15
1.06625e-14
1.10934e-14
1.27055e-14
1.32826e-14
1.41027e-14
1.51747e-14
1.56906e-14
1.6328e-14
1.69863e-14
1.76008e-14
1.81489e-14
1.8628e-14
1.91259e-14
1.96844e-14
2.02005e-14
2.07447e-14
2.1284e-14
2.18113e-14
2.2325e-14
2.28609e-14
2.34112e-14
2.39816e-14
2.45044e-14
2.50758e-14
2.56349e-14
2.61618e-14
2.66965e-14
2.72722e-14
2.78721e-14
2.84752e-14
2.90344e-14
2.95887e-14
3.01879e-14
3.07217e-14
3.11915e-14
3.17302e-14
3.22455e-14
3.27278e-14
3.31961e-14
3.36849e-14
3.41722e-14
3.47203e-14
3.52734e-14
3.58761e-14
3.65366e-14
3.71441e-14
3.77411e-14
3.88251e-14
3.96068e-14
3.94718e-14
4.19507e-14
4.3407e-14
4.37975e-14
4.52632e-14
9.55893e-15
1.09039e-14
1.22763e-14
1.33074e-14
1.36996e-14
1.42278e-14
1.55499e-14
1.63604e-14
1.6598e-14
1.7233e-14
1.79363e-14
1.84795e-14
1.89515e-14
1.94781e-14
2.00164e-14
2.0452e-14
2.08788e-14
2.13447e-14
2.18276e-14
2.22582e-14
2.27272e-14
2.32348e-14
2.37262e-14
2.42047e-14
2.46972e-14
2.51658e-14
2.56782e-14
2.62106e-14
2.67271e-14
2.72336e-14
2.77198e-14
2.82166e-14
2.87572e-14
2.92472e-14
2.96842e-14
3.01506e-14
3.06304e-14
3.11039e-14
3.15855e-14
3.20661e-14
3.25265e-14
3.30022e-14
3.35132e-14
3.39906e-14
3.45232e-14
3.50642e-14
3.55554e-14
3.62699e-14
3.69981e-14
3.72681e-14
3.83585e-14
3.97803e-14
3.99979e-14
3.9747e-14
4.28492e-14
4.35558e-14
1.13809e-14
1.26075e-14
1.3585e-14
1.42507e-14
1.51504e-14
1.60818e-14
1.68469e-14
1.73417e-14
1.79317e-14
1.85626e-14
1.90807e-14
1.95019e-14
1.99421e-14
2.04054e-14
2.08347e-14
2.12613e-14
2.16986e-14
2.21077e-14
2.25116e-14
2.29408e-14
2.33642e-14
2.37548e-14
2.41503e-14
2.45622e-14
2.49886e-14
2.54099e-14
2.58408e-14
2.62672e-14
2.67048e-14
2.71395e-14
2.75279e-14
2.79041e-14
2.83117e-14
2.87134e-14
2.91053e-14
2.95189e-14
2.99649e-14
3.03703e-14
3.07742e-14
3.12051e-14
3.1654e-14
3.20976e-14
3.25383e-14
3.29824e-14
3.34628e-14
3.39508e-14
3.44513e-14
3.5027e-14
3.55485e-14
3.63123e-14
3.72036e-14
3.70653e-14
3.87638e-14
4.02274e-14
4.06557e-14
4.15996e-14
1.32161e-14
1.38478e-14
1.48757e-14
1.56173e-14
1.66587e-14
1.73065e-14
1.77258e-14
1.82142e-14
1.88735e-14
1.93347e-14
1.97805e-14
2.02202e-14
2.06529e-14
2.10482e-14
2.14175e-14
2.18007e-14
2.21836e-14
2.25496e-14
2.2915e-14
2.3285e-14
2.3645e-14
2.40144e-14
2.43829e-14
2.47567e-14
2.51259e-14
2.55086e-14
2.58812e-14
2.62576e-14
2.66463e-14
2.70275e-14
2.74338e-14
2.78349e-14
2.81852e-14
2.85523e-14
2.89537e-14
2.93257e-14
2.96749e-14
3.00393e-14
3.03985e-14
3.07634e-14
3.11251e-14
3.14845e-14
3.1859e-14
3.2258e-14
3.26752e-14
3.31043e-14
3.35197e-14
3.40819e-14
3.46549e-14
3.50032e-14
3.57573e-14
3.66593e-14
3.71758e-14
3.68963e-14
3.91062e-14
3.97221e-14
1.51847e-14
1.58032e-14
1.69276e-14
1.74671e-14
1.81107e-14
1.84016e-14
1.89866e-14
1.95542e-14
1.99898e-14
2.04054e-14
2.0799e-14
2.11262e-14
2.15108e-14
2.18766e-14
2.21986e-14
2.25154e-14
2.28237e-14
2.31422e-14
2.34584e-14
2.37547e-14
2.4061e-14
2.44014e-14
2.47123e-14
2.50227e-14
2.53412e-14
2.56594e-14
2.59773e-14
2.63027e-14
2.66255e-14
2.69378e-14
2.7268e-14
2.75963e-14
2.79203e-14
2.82358e-14
2.85503e-14
2.88562e-14
2.91604e-14
2.94714e-14
2.97895e-14
3.0104e-14
3.04179e-14
3.07487e-14
3.10887e-14
3.14199e-14
3.17738e-14
3.21665e-14
3.25666e-14
3.29891e-14
3.33643e-14
3.39051e-14
3.46493e-14
3.45575e-14
3.56705e-14
3.65651e-14
3.70327e-14
3.77018e-14
1.72029e-14
1.77933e-14
1.85466e-14
1.89441e-14
1.953e-14
1.98094e-14
2.04474e-14
2.08836e-14
2.11147e-14
2.14958e-14
2.18685e-14
2.21556e-14
2.2447e-14
2.27327e-14
2.29895e-14
2.327e-14
2.35317e-14
2.3783e-14
2.40319e-14
2.43111e-14
2.45544e-14
2.47902e-14
2.50452e-14
2.53089e-14
2.5558e-14
2.58133e-14
2.60792e-14
2.63454e-14
2.66003e-14
2.68641e-14
2.71069e-14
2.73509e-14
2.76044e-14
2.78634e-14
2.81107e-14
2.83545e-14
2.86181e-14
2.88814e-14
2.91367e-14
2.93915e-14
2.96563e-14
2.99327e-14
3.02033e-14
3.04867e-14
3.07964e-14
3.11085e-14
3.13955e-14
3.17993e-14
3.22015e-14
3.24499e-14
3.3027e-14
3.34469e-14
3.41223e-14
3.39911e-14
3.52637e-14
3.57166e-14
1.92251e-14
1.96693e-14
2.01327e-14
2.0576e-14
2.10969e-14
2.12878e-14
2.17363e-14
2.20375e-14
2.22809e-14
2.25806e-14
2.28217e-14
2.30895e-14
2.33219e-14
2.35278e-14
2.37418e-14
2.396e-14
2.41744e-14
2.43736e-14
2.45698e-14
2.47621e-14
2.49719e-14
2.51577e-14
2.53581e-14
2.55433e-14
2.57383e-14
2.59376e-14
2.61601e-14
2.63704e-14
2.65808e-14
2.67853e-14
2.69731e-14
2.71712e-14
2.73731e-14
2.75695e-14
2.77688e-14
2.7968e-14
2.81658e-14
2.83614e-14
2.85591e-14
2.87622e-14
2.89683e-14
2.91735e-14
2.93839e-14
2.96073e-14
2.98471e-14
3.00787e-14
3.03354e-14
3.06615e-14
3.0876e-14
3.11476e-14
3.18045e-14
3.17343e-14
3.21809e-14
3.27505e-14
3.32981e-14
3.3656e-14
2.12926e-14
2.16436e-14
2.19598e-14
2.22668e-14
2.26726e-14
2.27487e-14
2.30734e-14
2.32868e-14
2.34578e-14
2.36893e-14
2.3879e-14
2.40278e-14
2.41779e-14
2.43644e-14
2.45466e-14
2.46705e-14
2.48062e-14
2.49574e-14
2.5115e-14
2.52366e-14
2.53876e-14
2.55358e-14
2.56886e-14
2.58388e-14
2.60084e-14
2.61458e-14
2.62603e-14
2.636e-14
2.64907e-14
2.66454e-14
2.6815e-14
2.69725e-14
2.71108e-14
2.72472e-14
2.73884e-14
2.75457e-14
2.76813e-14
2.78179e-14
2.79639e-14
2.81098e-14
2.82519e-14
2.84099e-14
2.85686e-14
2.87311e-14
2.89055e-14
2.90711e-14
2.92357e-14
2.94561e-14
2.96961e-14
2.98526e-14
3.00988e-14
3.0207e-14
3.09226e-14
3.08259e-14
3.12203e-14
3.1588e-14
2.33658e-14
2.36064e-14
2.38033e-14
2.39689e-14
2.42186e-14
2.42139e-14
2.44624e-14
2.46047e-14
2.46708e-14
2.47929e-14
2.50111e-14
2.51014e-14
2.51067e-14
2.52436e-14
2.53338e-14
2.54097e-14
2.54989e-14
2.55892e-14
2.56747e-14
2.57586e-14
2.58311e-14
2.59209e-14
2.59867e-14
2.60481e-14
2.61157e-14
2.62109e-14
2.63236e-14
2.6458e-14
2.6561e-14
2.66168e-14
2.66764e-14
2.67544e-14
2.6837e-14
2.69298e-14
2.70121e-14
2.70774e-14
2.71683e-14
2.72585e-14
2.73421e-14
2.74261e-14
2.75112e-14
2.7604e-14
2.76939e-14
2.77957e-14
2.78452e-14
2.79589e-14
2.81067e-14
2.82917e-14
2.83345e-14
2.83203e-14
2.89081e-14
2.88093e-14
2.86928e-14
2.88684e-14
2.94866e-14
2.95224e-14
2.54605e-14
2.55644e-14
2.55746e-14
2.56721e-14
2.57997e-14
2.57053e-14
2.58497e-14
2.59062e-14
2.59156e-14
2.59587e-14
2.60205e-14
2.60303e-14
2.6047e-14
2.61215e-14
2.61088e-14
2.61375e-14
2.61798e-14
2.61969e-14
2.621e-14
2.62466e-14
2.62756e-14
2.63013e-14
2.63319e-14
2.63841e-14
2.6408e-14
2.64305e-14
2.64253e-14
2.64223e-14
2.64418e-14
2.64853e-14
2.65194e-14
2.6553e-14
2.65715e-14
2.65936e-14
2.66329e-14
2.66464e-14
2.66821e-14
2.67048e-14
2.67247e-14
2.67585e-14
2.6786e-14
2.68023e-14
2.68173e-14
2.68724e-14
2.68926e-14
2.69302e-14
2.69449e-14
2.69815e-14
2.70714e-14
2.71623e-14
2.7129e-14
2.67666e-14
2.76871e-14
2.74736e-14
2.72146e-14
2.74024e-14
2.75478e-14
2.7539e-14
2.7396e-14
2.737e-14
2.74076e-14
2.71995e-14
2.724e-14
2.71952e-14
2.70969e-14
2.70938e-14
2.70248e-14
2.699e-14
2.69881e-14
2.69102e-14
2.68958e-14
2.68735e-14
2.68358e-14
2.67953e-14
2.67713e-14
2.67459e-14
2.67103e-14
2.66676e-14
2.66496e-14
2.6635e-14
2.66067e-14
2.65605e-14
2.65201e-14
2.64551e-14
2.64118e-14
2.63995e-14
2.63807e-14
2.63442e-14
2.63144e-14
2.62709e-14
2.62422e-14
2.6223e-14
2.61849e-14
2.61452e-14
2.61215e-14
2.60855e-14
2.60541e-14
2.60272e-14
2.60216e-14
2.59481e-14
2.5931e-14
2.58957e-14
2.58399e-14
2.58722e-14
2.57341e-14
2.55136e-14
2.589e-14
2.57457e-14
2.53201e-14
2.48558e-14
2.56084e-14
2.5341e-14
2.96544e-14
2.96108e-14
2.9198e-14
2.90526e-14
2.90162e-14
2.86855e-14
2.86361e-14
2.84981e-14
2.83197e-14
2.82574e-14
2.80642e-14
2.79382e-14
2.79215e-14
2.7792e-14
2.77033e-14
2.76094e-14
2.75107e-14
2.74294e-14
2.73394e-14
2.72362e-14
2.71433e-14
2.70716e-14
2.69571e-14
2.68337e-14
2.67259e-14
2.66413e-14
2.65925e-14
2.65524e-14
2.64714e-14
2.6358e-14
2.62291e-14
2.61329e-14
2.60522e-14
2.59715e-14
2.58622e-14
2.57788e-14
2.56769e-14
2.55994e-14
2.55108e-14
2.54136e-14
2.53188e-14
2.52353e-14
2.51268e-14
2.50045e-14
2.49791e-14
2.48821e-14
2.46686e-14
2.45406e-14
2.44844e-14
2.44554e-14
2.4093e-14
2.34668e-14
2.44475e-14
2.39517e-14
2.32607e-14
2.32067e-14
3.17241e-14
3.14795e-14
3.09825e-14
3.07689e-14
3.05996e-14
3.01382e-14
3.00132e-14
2.97896e-14
2.95259e-14
2.93662e-14
2.91681e-14
2.89811e-14
2.88233e-14
2.86463e-14
2.84814e-14
2.83201e-14
2.81747e-14
2.80219e-14
2.78727e-14
2.77223e-14
2.75795e-14
2.74317e-14
2.72937e-14
2.71697e-14
2.70386e-14
2.6878e-14
2.6693e-14
2.65013e-14
2.63429e-14
2.62049e-14
2.60746e-14
2.59388e-14
2.5783e-14
2.5633e-14
2.54877e-14
2.53446e-14
2.51964e-14
2.50488e-14
2.48953e-14
2.47497e-14
2.4598e-14
2.44494e-14
2.42827e-14
2.41071e-14
2.39468e-14
2.37646e-14
2.35492e-14
2.34649e-14
2.31331e-14
2.26853e-14
2.29733e-14
2.26938e-14
2.17342e-14
2.11433e-14
2.1733e-14
2.11721e-14
3.38127e-14
3.35576e-14
3.27921e-14
3.24267e-14
3.21842e-14
3.16089e-14
3.13836e-14
3.10738e-14
3.07195e-14
3.04737e-14
3.02173e-14
2.99599e-14
2.97255e-14
2.94952e-14
2.92745e-14
2.90643e-14
2.88546e-14
2.86375e-14
2.84342e-14
2.82301e-14
2.8032e-14
2.78076e-14
2.76053e-14
2.73812e-14
2.71778e-14
2.69627e-14
2.67849e-14
2.65691e-14
2.63786e-14
2.61495e-14
2.59529e-14
2.57198e-14
2.55258e-14
2.52998e-14
2.51193e-14
2.48905e-14
2.47041e-14
2.44789e-14
2.4293e-14
2.40654e-14
2.38674e-14
2.36327e-14
2.34365e-14
2.31828e-14
2.29638e-14
2.27328e-14
2.24576e-14
2.21142e-14
2.19408e-14
2.17507e-14
2.10958e-14
2.02441e-14
2.1222e-14
2.05316e-14
1.92242e-14
1.90516e-14
3.58486e-14
3.53686e-14
3.45666e-14
3.40473e-14
3.37273e-14
3.30521e-14
3.27247e-14
3.23322e-14
3.18915e-14
3.15844e-14
3.12463e-14
3.09281e-14
3.06136e-14
3.03495e-14
3.00496e-14
2.98029e-14
2.95018e-14
2.92731e-14
2.89727e-14
2.87491e-14
2.84394e-14
2.82266e-14
2.79186e-14
2.76976e-14
2.73781e-14
2.71638e-14
2.68409e-14
2.66322e-14
2.63049e-14
2.60908e-14
2.5753e-14
2.55412e-14
2.52229e-14
2.50164e-14
2.46911e-14
2.44873e-14
2.41731e-14
2.39654e-14
2.36503e-14
2.34359e-14
2.31179e-14
2.2898e-14
2.25748e-14
2.23123e-14
2.19903e-14
2.16853e-14
2.13064e-14
2.11352e-14
2.05816e-14
1.98556e-14
2.01865e-14
1.97087e-14
1.82477e-14
1.74191e-14
1.78764e-14
1.70739e-14
3.78802e-14
3.73511e-14
3.63097e-14
3.55916e-14
3.51977e-14
3.43818e-14
3.39833e-14
3.35107e-14
3.30024e-14
3.25876e-14
3.221e-14
3.18069e-14
3.14673e-14
3.11054e-14
3.07792e-14
3.04189e-14
3.01217e-14
2.97814e-14
2.94902e-14
2.91444e-14
2.88547e-14
2.85221e-14
2.82177e-14
2.78866e-14
2.75851e-14
2.72519e-14
2.69395e-14
2.66081e-14
2.62875e-14
2.59583e-14
2.56447e-14
2.5331e-14
2.50127e-14
2.46943e-14
2.43718e-14
2.40637e-14
2.37364e-14
2.34353e-14
2.31146e-14
2.28085e-14
2.24732e-14
2.21678e-14
2.1818e-14
2.14845e-14
2.11127e-14
2.07866e-14
2.03589e-14
1.984e-14
1.94338e-14
1.93933e-14
1.82624e-14
1.68645e-14
1.82359e-14
1.74846e-14
1.53321e-14
1.49851e-14
3.98625e-14
3.91579e-14
3.79984e-14
3.71865e-14
3.67819e-14
3.57902e-14
3.52749e-14
3.47301e-14
3.41562e-14
3.36617e-14
3.3245e-14
3.27448e-14
3.23752e-14
3.1905e-14
3.16132e-14
3.11425e-14
3.08754e-14
3.03625e-14
3.01386e-14
2.96151e-14
2.94162e-14
2.88478e-14
2.86729e-14
2.80898e-14
2.79307e-14
2.73132e-14
2.71737e-14
2.65189e-14
2.6395e-14
2.574e-14
2.56372e-14
2.4974e-14
2.48831e-14
2.42313e-14
2.41561e-14
2.34761e-14
2.33863e-14
2.27348e-14
2.26346e-14
2.19812e-14
2.18595e-14
2.1212e-14
2.10477e-14
2.04395e-14
2.026e-14
1.96122e-14
1.92478e-14
1.87711e-14
1.84066e-14
1.70713e-14
1.72117e-14
1.72769e-14
1.51289e-14
1.34236e-14
1.42964e-14
1.31068e-14
4.17911e-14
4.08557e-14
3.97689e-14
3.84633e-14
3.80751e-14
3.7159e-14
3.64539e-14
3.58911e-14
3.52275e-14
3.4749e-14
3.41526e-14
3.37386e-14
3.32068e-14
3.28519e-14
3.22705e-14
3.19491e-14
3.1392e-14
3.11338e-14
3.05218e-14
3.02872e-14
2.965e-14
2.94479e-14
2.87978e-14
2.85855e-14
2.79168e-14
2.77127e-14
2.70258e-14
2.68258e-14
2.61187e-14
2.59203e-14
2.51948e-14
2.49874e-14
2.42718e-14
2.4064e-14
2.33799e-14
2.32307e-14
2.25944e-14
2.23765e-14
2.17496e-14
2.15524e-14
2.0956e-14
2.07328e-14
2.01273e-14
1.98024e-14
1.91579e-14
1.87872e-14
1.82474e-14
1.7742e-14
1.69175e-14
1.6794e-14
1.60473e-14
1.36369e-14
1.50234e-14
1.44132e-14
1.18224e-14
1.10925e-14
4.36595e-14
4.25923e-14
4.11943e-14
3.99561e-14
3.92774e-14
3.82301e-14
3.75028e-14
3.6841e-14
3.6085e-14
3.55444e-14
3.49265e-14
3.4445e-14
3.38024e-14
3.34222e-14
3.27906e-14
3.24907e-14
3.17957e-14
3.15604e-14
3.08337e-14
3.06533e-14
2.98608e-14
2.97424e-14
2.88688e-14
2.88173e-14
2.78935e-14
2.78886e-14
2.69118e-14
2.69461e-14
2.59098e-14
2.5979e-14
2.49046e-14
2.50143e-14
2.39474e-14
2.40893e-14
2.29973e-14
2.31532e-14
2.2027e-14
2.2212e-14
2.11812e-14
2.13053e-14
2.02318e-14
2.03517e-14
1.93334e-14
1.93357e-14
1.83898e-14
1.83367e-14
1.724e-14
1.70146e-14
1.61627e-14
1.54581e-14
1.42923e-14
1.45905e-14
1.30422e-14
1.05481e-14
1.06181e-14
9.31587e-15
4.5499e-14
4.45667e-14
4.25953e-14
4.17761e-14
4.07457e-14
3.95166e-14
3.89105e-14
3.80314e-14
3.7327e-14
3.6614e-14
3.61493e-14
3.53785e-14
3.50286e-14
3.42739e-14
3.40267e-14
3.31964e-14
3.30413e-14
3.20976e-14
3.20479e-14
3.09885e-14
3.10357e-14
2.98669e-14
2.99867e-14
2.87321e-14
2.8903e-14
2.75734e-14
2.77674e-14
2.63475e-14
2.66181e-14
2.51545e-14
2.55015e-14
2.40761e-14
2.44548e-14
2.30114e-14
2.3369e-14
2.18631e-14
2.22277e-14
2.08431e-14
2.10361e-14
1.9692e-14
1.99219e-14
1.86117e-14
1.87441e-14
1.75652e-14
1.76136e-14
1.64706e-14
1.62898e-14
1.53144e-14
1.49645e-14
1.38364e-14
1.35163e-14
1.17452e-14
1.07749e-14
1.13109e-14
8.2231e-15
7.41211e-15
4.72072e-14
4.58917e-14
4.3239e-14
4.26064e-14
4.16173e-14
4.04244e-14
3.96975e-14
3.88921e-14
3.81206e-14
3.74538e-14
3.68099e-14
3.6169e-14
3.56148e-14
3.49747e-14
3.44134e-14
3.37758e-14
3.32918e-14
3.2615e-14
3.21566e-14
3.14572e-14
3.10238e-14
3.03037e-14
2.98962e-14
2.90975e-14
2.87477e-14
2.79509e-14
2.76081e-14
2.66934e-14
2.63031e-14
2.53191e-14
2.48879e-14
2.38179e-14
2.34172e-14
2.24856e-14
2.23044e-14
2.14905e-14
2.13304e-14
2.03324e-14
2.02834e-14
1.9524e-14
1.94313e-14
1.85326e-14
1.83248e-14
1.73845e-14
1.71123e-14
1.61925e-14
1.5907e-14
1.49483e-14
1.43971e-14
1.32312e-14
1.29205e-14
1.16477e-14
1.06729e-14
9.25889e-15
7.16998e-15
5.77068e-15
4.88611e-14
4.76801e-14
4.54507e-14
4.39027e-14
4.28356e-14
4.14418e-14
4.04031e-14
3.96903e-14
3.87563e-14
3.81425e-14
3.73101e-14
3.68506e-14
3.59981e-14
3.56949e-14
3.47803e-14
3.45894e-14
3.35577e-14
3.34831e-14
3.22952e-14
3.23472e-14
3.09809e-14
3.11217e-14
2.96189e-14
2.99391e-14
2.83757e-14
2.8803e-14
2.7e-14
2.73383e-14
2.53996e-14
2.5885e-14
2.40703e-14
2.50251e-14
2.33588e-14
2.40528e-14
2.19977e-14
2.25811e-14
2.05833e-14
2.12202e-14
1.94129e-14
1.96585e-14
1.77589e-14
1.82921e-14
1.66797e-14
1.70116e-14
1.55433e-14
1.57049e-14
1.41961e-14
1.41195e-14
1.28879e-14
1.2476e-14
1.09293e-14
9.77874e-15
9.09419e-15
7.40033e-15
5.33025e-15
4.10911e-15
5.0458e-14
4.85707e-14
4.62925e-14
4.45582e-14
4.35422e-14
4.25188e-14
4.15948e-14
4.07049e-14
3.99378e-14
3.9218e-14
3.85726e-14
3.78783e-14
3.7264e-14
3.65871e-14
3.60074e-14
3.53055e-14
3.47082e-14
3.39923e-14
3.33892e-14
3.26274e-14
3.20227e-14
3.12434e-14
3.05823e-14
2.96553e-14
2.89209e-14
2.80596e-14
2.7409e-14
2.66784e-14
2.63226e-14
2.55648e-14
2.4891e-14
2.38897e-14
2.30844e-14
2.21372e-14
2.15452e-14
2.07525e-14
2.02102e-14
1.94316e-14
1.88189e-14
1.81876e-14
1.77132e-14
1.69977e-14
1.63868e-14
1.5712e-14
1.51168e-14
1.44256e-14
1.37652e-14
1.30716e-14
1.22956e-14
1.14038e-14
1.05191e-14
9.49046e-15
8.3568e-15
6.61098e-15
4.51334e-15
2.53083e-15
5.17337e-14
4.90686e-14
4.67822e-14
4.5296e-14
4.40703e-14
4.29849e-14
4.20477e-14
4.12082e-14
4.04477e-14
3.97283e-14
3.90512e-14
3.83829e-14
3.77421e-14
3.70845e-14
3.64458e-14
3.57742e-14
3.51213e-14
3.44225e-14
3.37457e-14
3.30118e-14
3.23087e-14
3.15401e-14
3.08458e-14
3.02779e-14
2.98877e-14
2.93036e-14
2.84449e-14
2.71353e-14
2.57457e-14
2.44472e-14
2.36136e-14
2.30383e-14
2.26633e-14
2.20834e-14
2.14041e-14
2.06185e-14
1.99319e-14
1.918e-14
1.85131e-14
1.77977e-14
1.71594e-14
1.64646e-14
1.58448e-14
1.51737e-14
1.45494e-14
1.38671e-14
1.32068e-14
1.24771e-14
1.17247e-14
1.08731e-14
9.95208e-15
8.87218e-15
7.64649e-15
6.16069e-15
3.8868e-15
1.22341e-15
)
;

boundaryField
{
    top
    {
        type            zeroGradient;
    }
    bottom
    {
        type            zeroGradient;
    }
    rotatingWall
    {
        type            zeroGradient;
    }
    wall
    {
        type            zeroGradient;
    }
    frontAndBack
    {
        type            empty;
    }
}


// ************************************************************************* //
