/*--------------------------------*- C++ -*----------------------------------*\
| =========                 |                                                 |
| \\      /  F ield         | OpenFOAM: The Open Source CFD Toolbox           |
|  \\    /   O peration     | Version:  5.0                                   |
|   \\  /    A nd           | Web:      www.OpenFOAM.org                      |
|    \\/     M anipulation  |                                                 |
\*---------------------------------------------------------------------------*/
FoamFile
{
    version     2.0;
    format      ascii;
    class       volScalarField;
    location    "472";
    object      p;
}
// * * * * * * * * * * * * * * * * * * * * * * * * * * * * * * * * * * * * * //

dimensions      [0 2 -2 0 0 0 0];

internalField   nonuniform List<scalar> 
1568
(
5.01542e-19
5.18452e-18
8.91702e-18
1.12098e-17
1.31882e-17
1.49258e-17
1.63937e-17
1.77146e-17
1.89306e-17
2.00619e-17
2.11363e-17
2.21798e-17
2.32073e-17
2.42271e-17
2.52511e-17
2.62878e-17
2.73406e-17
2.84136e-17
2.95086e-17
3.06269e-17
3.17673e-17
3.29321e-17
3.40719e-17
3.49204e-17
3.55712e-17
3.64232e-17
3.78078e-17
3.98091e-17
4.20812e-17
4.40888e-17
4.5481e-17
4.63405e-17
4.69911e-17
4.78338e-17
4.89715e-17
5.01371e-17
5.12765e-17
5.2396e-17
5.3491e-17
5.45642e-17
5.56174e-17
5.6655e-17
5.76793e-17
5.87013e-17
5.9728e-17
6.07729e-17
6.18516e-17
6.29857e-17
6.41976e-17
6.55231e-17
6.70105e-17
6.87228e-17
7.06969e-17
7.30448e-17
7.674e-17
8.0981e-17
3.0831e-18
5.83109e-18
1.04468e-17
1.22116e-17
1.38616e-17
1.59506e-17
1.73689e-17
1.86495e-17
1.99284e-17
2.10825e-17
2.21393e-17
2.31686e-17
2.41935e-17
2.51888e-17
2.61832e-17
2.71845e-17
2.81931e-17
2.92153e-17
3.02556e-17
3.13162e-17
3.23979e-17
3.35039e-17
3.46627e-17
3.59703e-17
3.72689e-17
3.8455e-17
3.96741e-17
4.0634e-17
4.12765e-17
4.22447e-17
4.34605e-17
4.4638e-17
4.59203e-17
4.72375e-17
4.83983e-17
4.9513e-17
5.05833e-17
5.16538e-17
5.26892e-17
5.37113e-17
5.4724e-17
5.57346e-17
5.67237e-17
5.77237e-17
5.87335e-17
5.97745e-17
6.08579e-17
6.20027e-17
6.32209e-17
6.4584e-17
6.6113e-17
6.78473e-17
6.97814e-17
7.18673e-17
7.61057e-17
7.88972e-17
5.77176e-18
8.45118e-18
1.11563e-17
1.38436e-17
1.58239e-17
1.73389e-17
1.87919e-17
2.02702e-17
2.1453e-17
2.24995e-17
2.36487e-17
2.4683e-17
2.56113e-17
2.65757e-17
2.75342e-17
2.8453e-17
2.93946e-17
3.03429e-17
3.13014e-17
3.22586e-17
3.32377e-17
3.42227e-17
3.52227e-17
3.62268e-17
3.71425e-17
3.80273e-17
3.91143e-17
4.03409e-17
4.15694e-17
4.278e-17
4.3867e-17
4.47713e-17
4.57111e-17
4.67112e-17
4.7696e-17
4.86708e-17
4.96692e-17
5.06119e-17
5.1574e-17
5.25274e-17
5.34521e-17
5.43616e-17
5.53269e-17
5.62761e-17
5.726e-17
5.82755e-17
5.93384e-17
6.0471e-17
6.17192e-17
6.30714e-17
6.4528e-17
6.61957e-17
6.83188e-17
7.01453e-17
7.38422e-17
7.62975e-17
8.26602e-18
1.0431e-17
1.39852e-17
1.53942e-17
1.72201e-17
1.88412e-17
2.02406e-17
2.15732e-17
2.27617e-17
2.38588e-17
2.4867e-17
2.58152e-17
2.67669e-17
2.76954e-17
2.85652e-17
2.94584e-17
3.03447e-17
3.12186e-17
3.2095e-17
3.3002e-17
3.39016e-17
3.48088e-17
3.57132e-17
3.66285e-17
3.75093e-17
3.84239e-17
3.93941e-17
4.04314e-17
4.14779e-17
4.2523e-17
4.3501e-17
4.43914e-17
4.52582e-17
4.61654e-17
4.70904e-17
4.79943e-17
4.88971e-17
4.97995e-17
5.0677e-17
5.15588e-17
5.24539e-17
5.33567e-17
5.42413e-17
5.51473e-17
5.60856e-17
5.7058e-17
5.80744e-17
5.91928e-17
6.03702e-17
6.16131e-17
6.31499e-17
6.48411e-17
6.64523e-17
6.81413e-17
7.16769e-17
7.37375e-17
1.09571e-17
1.26423e-17
1.57963e-17
1.72065e-17
1.88995e-17
2.04476e-17
2.17919e-17
2.29927e-17
2.40825e-17
2.51482e-17
2.61154e-17
2.70344e-17
2.79216e-17
2.87614e-17
2.95913e-17
3.04213e-17
3.12328e-17
3.20508e-17
3.28702e-17
3.36895e-17
3.45132e-17
3.5348e-17
3.61899e-17
3.70431e-17
3.78899e-17
3.87552e-17
3.9632e-17
4.05132e-17
4.139e-17
4.22736e-17
4.31536e-17
4.40268e-17
4.48807e-17
4.5731e-17
4.65763e-17
4.74097e-17
4.82245e-17
4.90506e-17
4.9868e-17
5.06776e-17
5.14857e-17
5.23034e-17
5.31319e-17
5.39917e-17
5.48689e-17
5.57936e-17
5.67763e-17
5.77957e-17
5.89076e-17
6.01974e-17
6.14981e-17
6.28622e-17
6.47225e-17
6.64298e-17
6.91026e-17
7.10004e-17
1.38387e-17
1.55067e-17
1.79549e-17
1.9482e-17
2.09017e-17
2.22387e-17
2.35224e-17
2.46447e-17
2.56455e-17
2.66226e-17
2.75308e-17
2.83793e-17
2.91882e-17
2.99785e-17
3.07548e-17
3.14993e-17
3.22378e-17
3.29798e-17
3.37219e-17
3.44547e-17
3.51985e-17
3.59496e-17
3.67004e-17
3.74532e-17
3.82143e-17
3.89749e-17
3.97584e-17
4.05579e-17
4.13575e-17
4.21517e-17
4.29304e-17
4.36939e-17
4.44577e-17
4.52119e-17
4.59545e-17
4.67035e-17
4.74502e-17
4.8187e-17
4.89279e-17
4.96717e-17
5.04142e-17
5.11657e-17
5.19388e-17
5.27217e-17
5.35389e-17
5.43915e-17
5.52786e-17
5.62649e-17
5.73243e-17
5.83679e-17
5.96475e-17
6.11656e-17
6.24992e-17
6.37486e-17
6.6557e-17
6.81422e-17
1.67958e-17
1.82251e-17
2.04013e-17
2.16645e-17
2.29713e-17
2.42253e-17
2.53116e-17
2.63134e-17
2.72812e-17
2.81584e-17
2.89648e-17
2.97345e-17
3.04766e-17
3.11908e-17
3.18779e-17
3.25558e-17
3.32299e-17
3.38901e-17
3.4547e-17
3.52114e-17
3.58751e-17
3.65342e-17
3.71994e-17
3.78698e-17
3.8544e-17
3.92226e-17
3.99119e-17
4.06064e-17
4.1305e-17
4.20051e-17
4.26925e-17
4.33657e-17
4.40375e-17
4.47078e-17
4.53731e-17
4.60362e-17
4.6702e-17
4.73594e-17
4.80164e-17
4.86794e-17
4.93508e-17
5.00298e-17
5.07214e-17
5.14311e-17
5.21717e-17
5.29514e-17
5.37713e-17
5.46387e-17
5.55758e-17
5.66346e-17
5.77514e-17
5.88427e-17
6.02836e-17
6.16782e-17
6.37277e-17
6.51444e-17
1.98507e-17
2.10271e-17
2.29422e-17
2.4014e-17
2.51673e-17
2.62477e-17
2.71945e-17
2.80955e-17
2.89489e-17
2.97047e-17
3.04316e-17
3.11306e-17
3.17881e-17
3.24142e-17
3.30242e-17
3.36249e-17
3.42135e-17
3.47941e-17
3.5373e-17
3.59515e-17
3.65278e-17
3.71075e-17
3.76908e-17
3.82766e-17
3.88625e-17
3.94563e-17
4.00535e-17
4.06542e-17
4.12566e-17
4.18555e-17
4.24564e-17
4.30535e-17
4.36381e-17
4.42226e-17
4.48096e-17
4.53875e-17
4.5961e-17
4.65402e-17
4.7119e-17
4.76999e-17
4.82862e-17
4.88815e-17
4.9492e-17
5.01253e-17
5.07816e-17
5.1469e-17
5.21918e-17
5.29793e-17
5.38222e-17
5.4682e-17
5.56726e-17
5.68216e-17
5.79065e-17
5.8841e-17
6.09022e-17
6.208e-17
2.29859e-17
2.39844e-17
2.56095e-17
2.6507e-17
2.74603e-17
2.83579e-17
2.92101e-17
2.99887e-17
3.06918e-17
3.13598e-17
3.19952e-17
3.25819e-17
3.31463e-17
3.36932e-17
3.42211e-17
3.47334e-17
3.52344e-17
3.57342e-17
3.62299e-17
3.67183e-17
3.72089e-17
3.7706e-17
3.81977e-17
3.8692e-17
3.91911e-17
3.96924e-17
4.01958e-17
4.07036e-17
4.12119e-17
4.17167e-17
4.22206e-17
4.27212e-17
4.322e-17
4.37146e-17
4.42066e-17
4.46985e-17
4.51896e-17
4.56811e-17
4.61757e-17
4.66736e-17
4.71767e-17
4.76911e-17
4.82201e-17
4.8763e-17
4.93245e-17
4.99222e-17
5.05543e-17
5.12168e-17
5.19276e-17
5.2718e-17
5.35677e-17
5.43947e-17
5.54321e-17
5.64225e-17
5.79149e-17
5.89244e-17
2.61853e-17
2.6997e-17
2.82897e-17
2.90251e-17
2.98265e-17
3.05729e-17
3.12766e-17
3.19048e-17
3.2483e-17
3.30509e-17
3.35818e-17
3.40677e-17
3.45328e-17
3.49864e-17
3.54208e-17
3.58474e-17
3.6264e-17
3.6674e-17
3.70797e-17
3.74889e-17
3.78917e-17
3.82933e-17
3.86987e-17
3.91071e-17
3.95147e-17
3.99243e-17
4.03364e-17
4.07498e-17
4.11629e-17
4.15787e-17
4.19899e-17
4.23982e-17
4.28064e-17
4.32134e-17
4.36171e-17
4.40201e-17
4.44259e-17
4.48305e-17
4.52358e-17
4.56456e-17
4.60622e-17
4.64873e-17
4.69224e-17
4.73731e-17
4.78407e-17
4.8334e-17
4.88514e-17
4.9416e-17
5.00209e-17
5.06278e-17
5.13278e-17
5.21026e-17
5.28963e-17
5.35466e-17
5.49242e-17
5.57237e-17
2.94276e-17
3.00595e-17
3.10506e-17
3.16392e-17
3.22612e-17
3.28363e-17
3.33744e-17
3.38672e-17
3.43435e-17
3.47821e-17
3.51819e-17
3.55708e-17
3.59474e-17
3.63008e-17
3.66401e-17
3.69746e-17
3.73026e-17
3.76231e-17
3.79401e-17
3.82555e-17
3.85729e-17
3.88862e-17
3.92026e-17
3.95172e-17
3.98334e-17
4.0152e-17
4.04755e-17
4.07977e-17
4.112e-17
4.1441e-17
4.1759e-17
4.20781e-17
4.2396e-17
4.27118e-17
4.30275e-17
4.3342e-17
4.3656e-17
4.39712e-17
4.42885e-17
4.46096e-17
4.49357e-17
4.52671e-17
4.56061e-17
4.59632e-17
4.63362e-17
4.67184e-17
4.71306e-17
4.75675e-17
4.80259e-17
4.8527e-17
4.90993e-17
4.96304e-17
5.02487e-17
5.08788e-17
5.18387e-17
5.24661e-17
3.27114e-17
3.31608e-17
3.3875e-17
3.42874e-17
3.47309e-17
3.51398e-17
3.55316e-17
3.58893e-17
3.62264e-17
3.65211e-17
3.68267e-17
3.70924e-17
3.73548e-17
3.76339e-17
3.78817e-17
3.81176e-17
3.8351e-17
3.85817e-17
3.88115e-17
3.90343e-17
3.92603e-17
3.94855e-17
3.97111e-17
3.99372e-17
4.01671e-17
4.03929e-17
4.06169e-17
4.08395e-17
4.10664e-17
4.1296e-17
4.15267e-17
4.17539e-17
4.19783e-17
4.22021e-17
4.24262e-17
4.26532e-17
4.28759e-17
4.31004e-17
4.33283e-17
4.35578e-17
4.37909e-17
4.40299e-17
4.4275e-17
4.45523e-17
4.48143e-17
4.50807e-17
4.53845e-17
4.56761e-17
4.60271e-17
4.6376e-17
4.67402e-17
4.7165e-17
4.76589e-17
4.80069e-17
4.87335e-17
4.91807e-17
3.60157e-17
3.62893e-17
3.6721e-17
3.69628e-17
3.72321e-17
3.74772e-17
3.77185e-17
3.79357e-17
3.81255e-17
3.82618e-17
3.86039e-17
3.87856e-17
3.87744e-17
3.8989e-17
3.91306e-17
3.92682e-17
3.94104e-17
3.95476e-17
3.96829e-17
3.98179e-17
3.99499e-17
4.00853e-17
4.02172e-17
4.03487e-17
4.04805e-17
4.06156e-17
4.07529e-17
4.08946e-17
4.10317e-17
4.11623e-17
4.12943e-17
4.14283e-17
4.15623e-17
4.16974e-17
4.18299e-17
4.19603e-17
4.2095e-17
4.22299e-17
4.23638e-17
4.24997e-17
4.26401e-17
4.27781e-17
4.29198e-17
4.31305e-17
4.31205e-17
4.33032e-17
4.36384e-17
4.37834e-17
4.39646e-17
4.41623e-17
4.44564e-17
4.46802e-17
4.48899e-17
4.51643e-17
4.56086e-17
4.58681e-17
3.93409e-17
3.94342e-17
3.95782e-17
3.96639e-17
3.97583e-17
3.9835e-17
3.99191e-17
3.99963e-17
4.00846e-17
4.01234e-17
4.02267e-17
4.02513e-17
4.02555e-17
4.03972e-17
4.03967e-17
4.04259e-17
4.04731e-17
4.05149e-17
4.05552e-17
4.05995e-17
4.06426e-17
4.06841e-17
4.0726e-17
4.07706e-17
4.0812e-17
4.08551e-17
4.0895e-17
4.09344e-17
4.09763e-17
4.10203e-17
4.10628e-17
4.11056e-17
4.11465e-17
4.11874e-17
4.12312e-17
4.12704e-17
4.13141e-17
4.13551e-17
4.13955e-17
4.14394e-17
4.14837e-17
4.15086e-17
4.15118e-17
4.16507e-17
4.16527e-17
4.16801e-17
4.17769e-17
4.18104e-17
4.19115e-17
4.19995e-17
4.20476e-17
4.20864e-17
4.22944e-17
4.23358e-17
4.24426e-17
4.2541e-17
4.26676e-17
4.25883e-17
4.24529e-17
4.23688e-17
4.22891e-17
4.21946e-17
4.21246e-17
4.204e-17
4.19501e-17
4.19133e-17
4.18025e-17
4.17738e-17
4.17676e-17
4.16211e-17
4.16145e-17
4.15824e-17
4.15301e-17
4.14802e-17
4.14328e-17
4.13846e-17
4.13345e-17
4.12831e-17
4.1235e-17
4.1187e-17
4.11372e-17
4.1086e-17
4.10357e-17
4.09815e-17
4.09291e-17
4.08812e-17
4.08318e-17
4.07802e-17
4.07301e-17
4.06782e-17
4.06283e-17
4.05805e-17
4.05291e-17
4.0478e-17
4.04298e-17
4.03792e-17
4.03275e-17
4.02931e-17
4.02861e-17
4.01403e-17
4.01302e-17
4.00986e-17
3.99932e-17
3.99607e-17
3.98534e-17
3.97437e-17
3.9733e-17
3.96436e-17
3.94864e-17
3.93709e-17
3.93145e-17
3.92114e-17
4.59957e-17
4.57417e-17
4.53166e-17
4.50653e-17
4.4817e-17
4.45526e-17
4.43316e-17
4.41065e-17
4.39068e-17
4.37736e-17
4.34285e-17
4.32435e-17
4.32516e-17
4.30312e-17
4.28857e-17
4.2742e-17
4.25934e-17
4.24521e-17
4.23107e-17
4.21671e-17
4.20257e-17
4.18887e-17
4.17446e-17
4.15992e-17
4.14554e-17
4.13128e-17
4.11727e-17
4.10354e-17
4.08918e-17
4.07453e-17
4.05971e-17
4.04544e-17
4.03128e-17
4.01728e-17
4.00273e-17
3.98874e-17
3.97434e-17
3.96039e-17
3.94607e-17
3.93159e-17
3.91667e-17
3.90246e-17
3.88734e-17
3.86532e-17
3.86606e-17
3.84791e-17
3.81265e-17
3.79805e-17
3.78005e-17
3.75974e-17
3.73183e-17
3.70072e-17
3.6906e-17
3.66144e-17
3.61346e-17
3.58809e-17
4.93052e-17
4.88694e-17
4.81648e-17
4.77539e-17
4.73246e-17
4.68882e-17
4.6518e-17
4.61523e-17
4.5812e-17
4.55191e-17
4.52041e-17
4.4935e-17
4.46706e-17
4.43857e-17
4.41365e-17
4.38903e-17
4.36523e-17
4.34143e-17
4.31818e-17
4.29477e-17
4.2718e-17
4.24831e-17
4.22533e-17
4.20214e-17
4.17918e-17
4.15536e-17
4.13152e-17
4.10712e-17
4.08362e-17
4.05989e-17
4.03678e-17
4.01314e-17
3.9897e-17
3.96606e-17
3.94307e-17
3.91959e-17
3.89656e-17
3.87298e-17
3.84961e-17
3.82581e-17
3.80185e-17
3.77716e-17
3.75222e-17
3.72364e-17
3.69691e-17
3.66954e-17
3.63836e-17
3.61012e-17
3.5736e-17
3.5343e-17
3.50445e-17
3.46217e-17
3.40701e-17
3.3643e-17
3.30339e-17
3.2571e-17
5.25986e-17
5.19875e-17
5.09852e-17
5.04027e-17
4.98055e-17
4.91996e-17
4.86737e-17
4.81693e-17
4.76954e-17
4.72603e-17
4.68437e-17
4.64582e-17
4.608e-17
4.57178e-17
4.5372e-17
4.50352e-17
4.4702e-17
4.4374e-17
4.4049e-17
4.37276e-17
4.34054e-17
4.30808e-17
4.27581e-17
4.2432e-17
4.21053e-17
4.17779e-17
4.14541e-17
4.11244e-17
4.07965e-17
4.04642e-17
4.01369e-17
3.98065e-17
3.94828e-17
3.91558e-17
3.88356e-17
3.85082e-17
3.81878e-17
3.7861e-17
3.75385e-17
3.72075e-17
3.6876e-17
3.65322e-17
3.61905e-17
3.58228e-17
3.54466e-17
3.50644e-17
3.46395e-17
3.41832e-17
3.37506e-17
3.32589e-17
3.2649e-17
3.20124e-17
3.15932e-17
3.09637e-17
2.98815e-17
2.92766e-17
5.58525e-17
5.50504e-17
5.37701e-17
5.30121e-17
5.22422e-17
5.1473e-17
5.07943e-17
5.01504e-17
4.95512e-17
4.89998e-17
4.84638e-17
4.79695e-17
4.74964e-17
4.70445e-17
4.65974e-17
4.61736e-17
4.57427e-17
4.5335e-17
4.49114e-17
4.45095e-17
4.40855e-17
4.3687e-17
4.32617e-17
4.28596e-17
4.24291e-17
4.20243e-17
4.15865e-17
4.1179e-17
4.07387e-17
4.03322e-17
3.98926e-17
3.94899e-17
3.90571e-17
3.86584e-17
3.82265e-17
3.78315e-17
3.74031e-17
3.70052e-17
3.65743e-17
3.61713e-17
3.57325e-17
3.53148e-17
3.48586e-17
3.44127e-17
3.39307e-17
3.34331e-17
3.28976e-17
3.23786e-17
3.17245e-17
3.10371e-17
3.04949e-17
2.97274e-17
2.87739e-17
2.80104e-17
2.68591e-17
2.60262e-17
5.90673e-17
5.808e-17
5.64855e-17
5.55581e-17
5.46137e-17
5.36726e-17
5.28588e-17
5.20778e-17
5.13556e-17
5.06849e-17
5.00535e-17
4.94515e-17
4.88885e-17
4.83332e-17
4.78053e-17
4.72785e-17
4.67758e-17
4.62645e-17
4.57719e-17
4.52627e-17
4.4773e-17
4.42649e-17
4.37701e-17
4.32585e-17
4.27604e-17
4.22424e-17
4.17362e-17
4.1213e-17
4.07032e-17
4.01795e-17
3.9673e-17
3.91563e-17
3.86542e-17
3.81421e-17
3.76454e-17
3.71407e-17
3.66444e-17
3.61414e-17
3.56442e-17
3.51359e-17
3.46273e-17
3.41071e-17
3.35764e-17
3.30209e-17
3.24485e-17
3.18627e-17
3.1224e-17
3.05138e-17
2.9824e-17
2.91371e-17
2.81603e-17
2.7134e-17
2.64712e-17
2.55371e-17
2.3774e-17
2.2808e-17
6.22199e-17
6.10351e-17
5.91278e-17
5.80433e-17
5.69332e-17
5.58082e-17
5.48553e-17
5.39503e-17
5.31071e-17
5.23273e-17
5.16021e-17
5.08992e-17
5.02473e-17
4.9597e-17
4.89981e-17
4.83776e-17
4.78033e-17
4.71881e-17
4.6631e-17
4.60173e-17
4.54651e-17
4.484e-17
4.42895e-17
4.3656e-17
4.31024e-17
4.24561e-17
4.18986e-17
4.12376e-17
4.06791e-17
4.00159e-17
3.94658e-17
3.88102e-17
3.82707e-17
3.76235e-17
3.70914e-17
3.64407e-17
3.5912e-17
3.5272e-17
3.47382e-17
3.40931e-17
3.35494e-17
3.28907e-17
3.23175e-17
3.1639e-17
3.10252e-17
3.02844e-17
2.95691e-17
2.88012e-17
2.7987e-17
2.69206e-17
2.61087e-17
2.51543e-17
2.37427e-17
2.25568e-17
2.0908e-17
1.96681e-17
6.53014e-17
6.38985e-17
6.17089e-17
6.0388e-17
5.91362e-17
5.78805e-17
5.67641e-17
5.57525e-17
5.4798e-17
5.39309e-17
5.30899e-17
5.23267e-17
5.15697e-17
5.08709e-17
5.01471e-17
4.94871e-17
4.8786e-17
4.81494e-17
4.74437e-17
4.68153e-17
4.6102e-17
4.54763e-17
4.47542e-17
4.41208e-17
4.33885e-17
4.27492e-17
4.1997e-17
4.13426e-17
4.0577e-17
3.99256e-17
3.91675e-17
3.85324e-17
3.7791e-17
3.71635e-17
3.64299e-17
3.58172e-17
3.50967e-17
3.44707e-17
3.37546e-17
3.3133e-17
3.24145e-17
3.17712e-17
3.10345e-17
3.03493e-17
2.95626e-17
2.88104e-17
2.79824e-17
2.71017e-17
2.61023e-17
2.52076e-17
2.40687e-17
2.25351e-17
2.15889e-17
2.03797e-17
1.79606e-17
1.65799e-17
6.82926e-17
6.66681e-17
6.41271e-17
6.26474e-17
6.12097e-17
5.98041e-17
5.85691e-17
5.74446e-17
5.63928e-17
5.54335e-17
5.45182e-17
5.36729e-17
5.28338e-17
5.20601e-17
5.12658e-17
5.05357e-17
4.97494e-17
4.90406e-17
4.82527e-17
4.75516e-17
4.67486e-17
4.60505e-17
4.52257e-17
4.45306e-17
4.36906e-17
4.29931e-17
4.21213e-17
4.14037e-17
4.05095e-17
3.97968e-17
3.89068e-17
3.82269e-17
3.73617e-17
3.66954e-17
3.58352e-17
3.51839e-17
3.43215e-17
3.36812e-17
3.28435e-17
3.21915e-17
3.13399e-17
3.06808e-17
2.98197e-17
2.9106e-17
2.82112e-17
2.74359e-17
2.64416e-17
2.55361e-17
2.44673e-17
2.33291e-17
2.20183e-17
2.08507e-17
1.92636e-17
1.75799e-17
1.52506e-17
1.36049e-17
7.11777e-17
6.93444e-17
6.64125e-17
6.48363e-17
6.3178e-17
6.16254e-17
6.03179e-17
5.90652e-17
5.79489e-17
5.68979e-17
5.5943e-17
5.49879e-17
5.41373e-17
5.32414e-17
5.24491e-17
5.15683e-17
5.08078e-17
4.99158e-17
4.91733e-17
4.8255e-17
4.75191e-17
4.657e-17
4.58351e-17
4.48591e-17
4.41229e-17
4.3122e-17
4.23678e-17
4.13321e-17
4.0587e-17
3.95419e-17
3.88158e-17
3.78001e-17
3.71006e-17
3.60902e-17
3.53941e-17
3.43824e-17
3.37056e-17
3.2735e-17
3.2031e-17
3.10671e-17
3.03743e-17
2.94104e-17
2.86875e-17
2.77207e-17
2.69357e-17
2.59131e-17
2.5011e-17
2.39092e-17
2.28453e-17
2.15546e-17
2.02981e-17
1.86524e-17
1.699e-17
1.56354e-17
1.25507e-17
1.07192e-17
7.39061e-17
7.17923e-17
6.84059e-17
6.67141e-17
6.49309e-17
6.32646e-17
6.1857e-17
6.05469e-17
5.93582e-17
5.82631e-17
5.7231e-17
5.62488e-17
5.53155e-17
5.43896e-17
5.34948e-17
5.25927e-17
5.1719e-17
5.08102e-17
4.99336e-17
4.90086e-17
4.81203e-17
4.71769e-17
4.62836e-17
4.53223e-17
4.44591e-17
4.35012e-17
4.25622e-17
4.14701e-17
4.04541e-17
3.93578e-17
3.84142e-17
3.74213e-17
3.65565e-17
3.55767e-17
3.47167e-17
3.37532e-17
3.29062e-17
3.19244e-17
3.11039e-17
3.01754e-17
2.93571e-17
2.84028e-17
2.75622e-17
2.65894e-17
2.56968e-17
2.46656e-17
2.36967e-17
2.25517e-17
2.13845e-17
2.00274e-17
1.86919e-17
1.69973e-17
1.52285e-17
1.34387e-17
1.01156e-17
8.00339e-18
7.64865e-17
7.40792e-17
7.03106e-17
6.83496e-17
6.64787e-17
6.4701e-17
6.31878e-17
6.18621e-17
6.06047e-17
5.94821e-17
5.83881e-17
5.73996e-17
5.63769e-17
5.54625e-17
5.44629e-17
5.35814e-17
5.25649e-17
5.16951e-17
5.06413e-17
4.9774e-17
4.8672e-17
4.78022e-17
4.66681e-17
4.57996e-17
4.47381e-17
4.39919e-17
4.27205e-17
4.1655e-17
4.02484e-17
3.91982e-17
3.79092e-17
3.72258e-17
3.61341e-17
3.53171e-17
3.41028e-17
3.33071e-17
3.21105e-17
3.13372e-17
3.01988e-17
2.93896e-17
2.82525e-17
2.7489e-17
2.63799e-17
2.55603e-17
2.44434e-17
2.3552e-17
2.23537e-17
2.13066e-17
2.00056e-17
1.87375e-17
1.71379e-17
1.53948e-17
1.3585e-17
1.15715e-17
7.8476e-18
5.43215e-18
7.90822e-17
7.62472e-17
7.20872e-17
6.99339e-17
6.80199e-17
6.6262e-17
6.47517e-17
6.33978e-17
6.21651e-17
6.1018e-17
5.99353e-17
5.88888e-17
5.78738e-17
5.6865e-17
5.58674e-17
5.48558e-17
5.3843e-17
5.28076e-17
5.17638e-17
5.0688e-17
4.96034e-17
4.84828e-17
4.73169e-17
4.5988e-17
4.46807e-17
4.34841e-17
4.22615e-17
4.1289e-17
4.06319e-17
3.96574e-17
3.84339e-17
3.72238e-17
3.59079e-17
3.45816e-17
3.3421e-17
3.22997e-17
3.12175e-17
3.01417e-17
2.90906e-17
2.80688e-17
2.70635e-17
2.6049e-17
2.50453e-17
2.40416e-17
2.30216e-17
2.19775e-17
2.08931e-17
1.97493e-17
1.85041e-17
1.71561e-17
1.56559e-17
1.38967e-17
1.19618e-17
9.82351e-18
5.6771e-18
2.84127e-18
8.1162e-17
7.69069e-17
7.32151e-17
7.08637e-17
6.88858e-17
6.71714e-17
6.56847e-17
6.43553e-17
6.31398e-17
6.20029e-17
6.09211e-17
5.9871e-17
5.88406e-17
5.78126e-17
5.67828e-17
5.57379e-17
5.46797e-17
5.35965e-17
5.24956e-17
5.13661e-17
5.02196e-17
4.9042e-17
4.78986e-17
4.70437e-17
4.63865e-17
4.55145e-17
4.41171e-17
4.2096e-17
3.9816e-17
3.77969e-17
3.64042e-17
3.55347e-17
3.48784e-17
3.40189e-17
3.28761e-17
3.16955e-17
3.05506e-17
2.94181e-17
2.83177e-17
2.72319e-17
2.61749e-17
2.51258e-17
2.40977e-17
2.30668e-17
2.20371e-17
2.09838e-17
1.99034e-17
1.87642e-17
1.75481e-17
1.62163e-17
1.47316e-17
1.3017e-17
1.10383e-17
8.69017e-18
5.0029e-18
7.53684e-19
)
;

boundaryField
{
    top
    {
        type            zeroGradient;
    }
    bottom
    {
        type            zeroGradient;
    }
    rotatingWall
    {
        type            zeroGradient;
    }
    wall
    {
        type            zeroGradient;
    }
    frontAndBack
    {
        type            empty;
    }
}


// ************************************************************************* //
