/*--------------------------------*- C++ -*----------------------------------*\
| =========                 |                                                 |
| \\      /  F ield         | OpenFOAM: The Open Source CFD Toolbox           |
|  \\    /   O peration     | Version:  5.0                                   |
|   \\  /    A nd           | Web:      www.OpenFOAM.org                      |
|    \\/     M anipulation  |                                                 |
\*---------------------------------------------------------------------------*/
FoamFile
{
    version     2.0;
    format      ascii;
    class       volScalarField;
    location    "163";
    object      p;
}
// * * * * * * * * * * * * * * * * * * * * * * * * * * * * * * * * * * * * * //

dimensions      [0 2 -2 0 0 0 0];

internalField   nonuniform List<scalar> 
1568
(
1.72947e-13
-2.79201e-13
3.61668e-13
-9.29707e-14
2.09969e-13
7.34737e-13
7.34701e-13
7.88984e-13
9.34752e-13
1.03312e-12
1.10843e-12
1.20921e-12
1.3179e-12
1.41684e-12
1.50752e-12
1.60439e-12
1.69581e-12
1.79509e-12
1.889e-12
1.99768e-12
2.0978e-12
2.20141e-12
2.28046e-12
2.37997e-12
2.4845e-12
2.64604e-12
2.81158e-12
2.99022e-12
3.09373e-12
3.1853e-12
3.22996e-12
3.31175e-12
3.39294e-12
3.50196e-12
3.57407e-12
3.66667e-12
3.72257e-12
3.8066e-12
3.86261e-12
3.92943e-12
3.97438e-12
4.03892e-12
4.08325e-12
4.14839e-12
4.20281e-12
4.26901e-12
4.32592e-12
4.39069e-12
4.45357e-12
4.53762e-12
4.60264e-12
4.71745e-12
4.91759e-12
4.91555e-12
5.23841e-12
5.39719e-12
-1.71124e-13
-9.15762e-12
6.36584e-12
2.4387e-12
-1.8691e-12
1.64423e-12
1.50716e-12
8.68506e-13
1.25209e-12
1.563e-12
1.54772e-12
1.57105e-12
1.64992e-12
1.72981e-12
1.84802e-12
1.97618e-12
2.06184e-12
2.21574e-12
2.31445e-12
2.43766e-12
2.48653e-12
2.62968e-12
2.62455e-12
2.68718e-12
2.65431e-12
2.81558e-12
2.80924e-12
2.97285e-12
2.90482e-12
3.16285e-12
3.14098e-12
3.24538e-12
3.0867e-12
3.22174e-12
3.16174e-12
3.3677e-12
3.28189e-12
3.4498e-12
3.4077e-12
3.51736e-12
3.52639e-12
3.71405e-12
3.69537e-12
3.77111e-12
3.75498e-12
3.85648e-12
3.87905e-12
3.97834e-12
4.04356e-12
4.22581e-12
4.28037e-12
4.40043e-12
4.81704e-12
3.63048e-12
5.55951e-12
5.28276e-12
6.61246e-13
2.22715e-12
-1.4953e-12
-5.67755e-13
-1.02331e-12
9.10744e-13
5.69367e-13
3.40916e-13
5.56935e-13
4.48215e-13
7.37679e-13
9.80337e-13
9.85682e-13
1.07854e-12
1.20423e-12
1.21349e-12
1.31595e-12
1.40001e-12
1.52275e-12
1.60324e-12
1.75087e-12
1.9012e-12
2.12972e-12
2.25608e-12
2.46816e-12
2.54471e-12
2.67172e-12
2.77418e-12
2.9628e-12
3.02132e-12
3.18491e-12
3.43332e-12
3.85414e-12
3.9964e-12
4.10285e-12
4.12936e-12
4.28777e-12
4.27902e-12
4.36739e-12
4.4127e-12
4.36951e-12
4.238e-12
4.35725e-12
4.41032e-12
4.52948e-12
4.58509e-12
4.66113e-12
4.76127e-12
4.80137e-12
4.72953e-12
4.86952e-12
4.56966e-12
5.6104e-12
5.14923e-12
4.84664e-12
5.0617e-12
3.98458e-13
2.3663e-12
2.2149e-12
-1.7119e-13
1.2539e-12
2.25329e-12
1.39037e-12
1.39553e-12
1.97749e-12
2.08883e-12
1.97951e-12
1.96627e-12
2.07773e-12
2.25114e-12
2.27177e-12
2.37797e-12
2.46143e-12
2.50492e-12
2.51166e-12
2.62756e-12
2.65382e-12
2.69467e-12
2.67669e-12
2.73139e-12
2.74551e-12
2.84205e-12
2.87065e-12
2.97069e-12
2.99619e-12
3.0528e-12
3.00121e-12
2.90873e-12
2.78112e-12
2.73189e-12
2.75911e-12
2.81927e-12
2.86193e-12
2.94491e-12
2.96912e-12
3.10647e-12
3.23492e-12
3.40086e-12
3.46436e-12
3.52734e-12
3.55956e-12
3.60753e-12
3.61498e-12
3.71892e-12
3.85773e-12
3.93497e-12
4.08069e-12
4.22488e-12
4.50486e-12
3.65368e-12
5.30229e-12
4.98233e-12
3.44859e-13
-1.12653e-12
7.30106e-14
1.64236e-13
1.55749e-12
1.564e-12
1.03867e-12
1.2858e-12
1.58686e-12
1.68567e-12
1.68964e-12
1.75759e-12
1.83942e-12
1.89975e-12
1.94399e-12
2.04071e-12
2.14308e-12
2.24855e-12
2.33801e-12
2.41691e-12
2.47366e-12
2.52303e-12
2.57958e-12
2.64729e-12
2.69867e-12
2.77465e-12
2.84534e-12
2.87293e-12
2.9098e-12
2.96604e-12
3.03457e-12
3.07752e-12
3.10992e-12
3.13648e-12
3.23819e-12
3.29874e-12
3.32554e-12
3.37026e-12
3.41493e-12
3.45155e-12
3.48437e-12
3.51978e-12
3.54477e-12
3.58072e-12
3.63488e-12
3.68865e-12
3.75742e-12
3.85876e-12
3.87538e-12
4.02863e-12
4.25738e-12
3.67126e-12
4.47417e-12
5.09214e-12
4.25955e-12
4.72275e-12
7.88935e-13
6.9979e-13
1.09909e-12
1.45108e-12
1.38962e-12
8.27665e-13
9.69967e-13
1.38479e-12
1.36868e-12
1.34237e-12
1.44592e-12
1.58232e-12
1.67141e-12
1.76159e-12
1.85004e-12
1.90309e-12
1.95111e-12
2.01672e-12
2.09446e-12
2.15317e-12
2.22515e-12
2.32792e-12
2.42018e-12
2.50155e-12
2.57234e-12
2.64218e-12
2.72983e-12
2.82187e-12
2.90476e-12
2.99923e-12
3.08542e-12
3.18773e-12
3.31193e-12
3.40609e-12
3.45866e-12
3.50656e-12
3.55341e-12
3.61557e-12
3.66653e-12
3.71137e-12
3.74381e-12
3.78552e-12
3.83078e-12
3.86722e-12
3.93038e-12
3.98535e-12
4.01646e-12
4.11551e-12
4.17849e-12
4.11384e-12
4.3041e-12
4.49342e-12
4.48196e-12
3.50104e-12
4.82522e-12
4.63771e-12
9.6215e-13
1.56884e-12
1.46545e-12
1.38504e-12
1.32563e-12
1.22347e-12
1.49854e-12
1.76309e-12
1.76768e-12
1.74792e-12
1.84915e-12
1.94056e-12
1.98699e-12
2.03727e-12
2.09862e-12
2.16381e-12
2.22504e-12
2.27374e-12
2.32922e-12
2.39363e-12
2.46065e-12
2.51532e-12
2.56838e-12
2.62352e-12
2.68746e-12
2.74419e-12
2.80644e-12
2.86293e-12
2.92503e-12
2.97288e-12
2.99336e-12
3.01528e-12
3.06962e-12
3.11044e-12
3.13446e-12
3.16585e-12
3.23203e-12
3.28112e-12
3.32516e-12
3.37899e-12
3.44343e-12
3.49858e-12
3.55253e-12
3.61025e-12
3.67602e-12
3.7099e-12
3.74888e-12
3.8586e-12
3.84241e-12
3.86358e-12
4.19993e-12
3.77316e-12
4.19892e-12
4.78524e-12
4.31633e-12
4.3847e-12
1.07244e-12
1.33831e-12
1.09304e-12
1.1244e-12
1.51763e-12
1.61761e-12
1.71351e-12
1.79784e-12
1.84552e-12
1.85272e-12
1.95875e-12
2.0376e-12
2.08415e-12
2.13103e-12
2.18306e-12
2.24699e-12
2.30899e-12
2.36294e-12
2.41543e-12
2.47059e-12
2.51902e-12
2.5695e-12
2.61148e-12
2.66022e-12
2.70927e-12
2.76107e-12
2.80066e-12
2.84333e-12
2.89083e-12
2.93179e-12
2.97817e-12
3.0222e-12
3.03725e-12
3.06384e-12
3.11413e-12
3.16067e-12
3.19731e-12
3.23521e-12
3.2666e-12
3.30898e-12
3.34789e-12
3.37713e-12
3.40874e-12
3.45469e-12
3.49454e-12
3.51534e-12
3.54879e-12
3.66256e-12
3.71068e-12
3.68691e-12
3.84741e-12
3.89068e-12
4.07157e-12
3.37086e-12
4.28964e-12
4.23214e-12
1.2896e-12
1.41986e-12
1.34542e-12
1.46603e-12
1.83662e-12
1.71612e-12
1.74461e-12
1.83406e-12
1.87402e-12
1.93407e-12
2.01453e-12
2.03382e-12
2.08997e-12
2.15893e-12
2.20777e-12
2.25666e-12
2.30283e-12
2.35224e-12
2.40464e-12
2.4492e-12
2.49295e-12
2.55469e-12
2.60153e-12
2.64608e-12
2.69336e-12
2.73875e-12
2.78506e-12
2.83163e-12
2.87812e-12
2.91809e-12
2.97463e-12
3.02783e-12
3.0723e-12
3.11275e-12
3.16124e-12
3.19949e-12
3.23137e-12
3.26087e-12
3.29465e-12
3.32918e-12
3.36313e-12
3.39328e-12
3.42319e-12
3.45488e-12
3.49157e-12
3.52223e-12
3.56503e-12
3.64859e-12
3.64145e-12
3.65468e-12
3.90079e-12
3.55743e-12
3.86713e-12
4.1126e-12
3.89839e-12
4.01777e-12
1.5609e-12
1.83993e-12
1.65801e-12
1.75483e-12
2.04437e-12
1.80681e-12
1.88328e-12
2.02357e-12
2.00883e-12
2.05314e-12
2.13473e-12
2.17224e-12
2.21169e-12
2.25497e-12
2.28899e-12
2.33826e-12
2.37777e-12
2.41431e-12
2.45385e-12
2.51009e-12
2.54313e-12
2.57331e-12
2.61457e-12
2.65992e-12
2.6958e-12
2.73775e-12
2.78824e-12
2.83857e-12
2.87854e-12
2.92047e-12
2.95187e-12
2.98627e-12
3.02024e-12
3.06051e-12
3.09445e-12
3.12199e-12
3.15675e-12
3.19452e-12
3.2268e-12
3.25772e-12
3.28968e-12
3.32222e-12
3.34793e-12
3.38722e-12
3.43091e-12
3.45271e-12
3.4748e-12
3.55726e-12
3.56759e-12
3.54839e-12
3.72124e-12
3.56954e-12
3.87521e-12
3.50127e-12
3.8369e-12
3.85231e-12
1.79436e-12
2.07972e-12
1.79959e-12
1.94034e-12
2.20663e-12
1.95901e-12
2.03782e-12
2.19086e-12
2.195e-12
2.20563e-12
2.24103e-12
2.30592e-12
2.33375e-12
2.35244e-12
2.38957e-12
2.42972e-12
2.46668e-12
2.49955e-12
2.53247e-12
2.55966e-12
2.59981e-12
2.6272e-12
2.66412e-12
2.68947e-12
2.72362e-12
2.756e-12
2.79848e-12
2.83289e-12
2.87021e-12
2.90286e-12
2.92456e-12
2.95068e-12
2.97989e-12
3.00663e-12
3.03388e-12
3.05943e-12
3.08779e-12
3.11521e-12
3.14181e-12
3.16845e-12
3.19728e-12
3.22134e-12
3.24214e-12
3.27432e-12
3.31196e-12
3.31899e-12
3.34366e-12
3.42757e-12
3.40977e-12
3.38263e-12
3.62425e-12
3.39557e-12
3.50603e-12
3.564e-12
3.66568e-12
3.65217e-12
2.03132e-12
2.31008e-12
1.97764e-12
2.08985e-12
2.36554e-12
2.14372e-12
2.20968e-12
2.33297e-12
2.32074e-12
2.33304e-12
2.36861e-12
2.39805e-12
2.40931e-12
2.43861e-12
2.48875e-12
2.50068e-12
2.51745e-12
2.54903e-12
2.58539e-12
2.5976e-12
2.63275e-12
2.66925e-12
2.70347e-12
2.73413e-12
2.77843e-12
2.80468e-12
2.81208e-12
2.80826e-12
2.82338e-12
2.85378e-12
2.89163e-12
2.92729e-12
2.95231e-12
2.97441e-12
2.99637e-12
3.0263e-12
3.04863e-12
3.06943e-12
3.08884e-12
3.11014e-12
3.13113e-12
3.15512e-12
3.17111e-12
3.19411e-12
3.22555e-12
3.2246e-12
3.23868e-12
3.31385e-12
3.29273e-12
3.27764e-12
3.43167e-12
3.18373e-12
3.52068e-12
3.41668e-12
3.30066e-12
3.44313e-12
2.26775e-12
2.49986e-12
2.21182e-12
2.29834e-12
2.53358e-12
2.32211e-12
2.37063e-12
2.47074e-12
2.43905e-12
2.44081e-12
2.48051e-12
2.50226e-12
2.51506e-12
2.5337e-12
2.55822e-12
2.5712e-12
2.59062e-12
2.61587e-12
2.63846e-12
2.65755e-12
2.67196e-12
2.692e-12
2.69384e-12
2.69227e-12
2.70415e-12
2.74164e-12
2.79297e-12
2.85367e-12
2.895e-12
2.89896e-12
2.8981e-12
2.91e-12
2.92802e-12
2.95294e-12
2.97259e-12
2.97896e-12
3.00293e-12
3.02331e-12
3.03831e-12
3.05459e-12
3.07181e-12
3.08672e-12
3.09584e-12
3.10951e-12
3.1413e-12
3.14417e-12
3.14456e-12
3.21886e-12
3.1971e-12
3.11791e-12
3.35061e-12
3.21845e-12
3.16363e-12
2.96695e-12
3.4175e-12
3.27274e-12
2.51361e-12
2.72598e-12
2.42085e-12
2.50958e-12
2.71349e-12
2.49177e-12
2.51923e-12
2.60917e-12
2.575e-12
2.55901e-12
2.58335e-12
2.59905e-12
2.60977e-12
2.61611e-12
2.61738e-12
2.63642e-12
2.65899e-12
2.6668e-12
2.67457e-12
2.69571e-12
2.71241e-12
2.73371e-12
2.76178e-12
2.80423e-12
2.8225e-12
2.82702e-12
2.80535e-12
2.78662e-12
2.79458e-12
2.8278e-12
2.85627e-12
2.88139e-12
2.89343e-12
2.907e-12
2.93096e-12
2.93968e-12
2.95929e-12
2.96984e-12
2.97905e-12
2.99669e-12
3.01168e-12
3.02124e-12
3.03082e-12
3.03846e-12
3.05481e-12
3.05659e-12
3.05307e-12
3.10296e-12
3.07642e-12
3.07236e-12
3.17761e-12
2.80244e-12
3.30539e-12
3.26149e-12
2.90961e-12
3.04363e-12
2.74226e-12
2.92818e-12
2.62642e-12
2.69757e-12
2.8943e-12
2.65554e-12
2.66959e-12
2.75383e-12
2.71376e-12
2.68729e-12
2.70235e-12
2.71031e-12
2.70557e-12
2.70743e-12
2.71192e-12
2.71948e-12
2.72145e-12
2.72046e-12
2.73056e-12
2.74456e-12
2.75249e-12
2.76e-12
2.78253e-12
2.81247e-12
2.82289e-12
2.81801e-12
2.8113e-12
2.79227e-12
2.79032e-12
2.81901e-12
2.84215e-12
2.85709e-12
2.86918e-12
2.87303e-12
2.88356e-12
2.90423e-12
2.90874e-12
2.91356e-12
2.92362e-12
2.93099e-12
2.93912e-12
2.9446e-12
2.95309e-12
2.96268e-12
2.97361e-12
2.95908e-12
2.94792e-12
3.00505e-12
2.9817e-12
2.86991e-12
3.0343e-12
3.02807e-12
2.94232e-12
2.30068e-12
3.15884e-12
2.89332e-12
2.98207e-12
3.25226e-12
2.83199e-12
2.86303e-12
3.07696e-12
2.816e-12
2.82144e-12
2.89412e-12
2.84013e-12
2.80884e-12
2.82031e-12
2.81769e-12
2.80139e-12
2.79589e-12
2.80059e-12
2.79842e-12
2.79364e-12
2.79659e-12
2.79905e-12
2.79227e-12
2.79139e-12
2.79587e-12
2.77657e-12
2.74735e-12
2.73506e-12
2.7494e-12
2.80509e-12
2.8576e-12
2.88118e-12
2.86826e-12
2.8422e-12
2.83481e-12
2.8485e-12
2.85516e-12
2.85146e-12
2.85823e-12
2.85673e-12
2.86448e-12
2.87266e-12
2.87097e-12
2.87493e-12
2.87533e-12
2.86606e-12
2.86858e-12
2.87982e-12
2.86315e-12
2.84749e-12
2.88551e-12
2.85516e-12
2.84925e-12
2.8955e-12
2.48771e-12
3.07866e-12
3.00466e-12
2.59091e-12
2.65701e-12
3.20046e-12
3.35629e-12
2.99305e-12
3.05296e-12
3.25893e-12
2.96777e-12
2.97096e-12
3.03757e-12
2.971e-12
2.93014e-12
2.92686e-12
2.91486e-12
2.89432e-12
2.88162e-12
2.86983e-12
2.85938e-12
2.85083e-12
2.84605e-12
2.83805e-12
2.83267e-12
2.8277e-12
2.82958e-12
2.83224e-12
2.84823e-12
2.85449e-12
2.8478e-12
2.82258e-12
2.79553e-12
2.78417e-12
2.79163e-12
2.79808e-12
2.81103e-12
2.80997e-12
2.81143e-12
2.80962e-12
2.81615e-12
2.81356e-12
2.81518e-12
2.81017e-12
2.81257e-12
2.81136e-12
2.81131e-12
2.79746e-12
2.79572e-12
2.79848e-12
2.77788e-12
2.74954e-12
2.80096e-12
2.76251e-12
2.61064e-12
2.77709e-12
2.83638e-12
2.56758e-12
1.85225e-12
2.92923e-12
2.53051e-12
3.43921e-12
3.6684e-12
3.24205e-12
3.22806e-12
3.43785e-12
3.12802e-12
3.11838e-12
3.17583e-12
3.09913e-12
3.0479e-12
3.04072e-12
3.02106e-12
2.99359e-12
2.96992e-12
2.95473e-12
2.93967e-12
2.92499e-12
2.90663e-12
2.89634e-12
2.88435e-12
2.87582e-12
2.85764e-12
2.84913e-12
2.83641e-12
2.83261e-12
2.82209e-12
2.82184e-12
2.80765e-12
2.80827e-12
2.79901e-12
2.79967e-12
2.78819e-12
2.78647e-12
2.77331e-12
2.77662e-12
2.76675e-12
2.76857e-12
2.75836e-12
2.75824e-12
2.74601e-12
2.74446e-12
2.73175e-12
2.7249e-12
2.71364e-12
2.71579e-12
2.68634e-12
2.66438e-12
2.68151e-12
2.63408e-12
2.62842e-12
2.66702e-12
2.17614e-12
2.82246e-12
2.83995e-12
2.14108e-12
2.29117e-12
3.66143e-12
3.77398e-12
3.43231e-12
3.37203e-12
3.60029e-12
3.27585e-12
3.24851e-12
3.29799e-12
3.21202e-12
3.15525e-12
3.13744e-12
3.11003e-12
3.07132e-12
3.04576e-12
3.02178e-12
3.00432e-12
2.97639e-12
2.95981e-12
2.93582e-12
2.92174e-12
2.89763e-12
2.88644e-12
2.86407e-12
2.84981e-12
2.82806e-12
2.82297e-12
2.81046e-12
2.81187e-12
2.80017e-12
2.79735e-12
2.77826e-12
2.77348e-12
2.76299e-12
2.75932e-12
2.74659e-12
2.74217e-12
2.72984e-12
2.72515e-12
2.71246e-12
2.7063e-12
2.69467e-12
2.68691e-12
2.66574e-12
2.65184e-12
2.64624e-12
2.61109e-12
2.56869e-12
2.60565e-12
2.56429e-12
2.37904e-12
2.5419e-12
2.62047e-12
2.27093e-12
1.40911e-12
2.62774e-12
2.19722e-12
3.88102e-12
4.0017e-12
3.70183e-12
3.51181e-12
3.74967e-12
3.42417e-12
3.37797e-12
3.41739e-12
3.3261e-12
3.25366e-12
3.22392e-12
3.18997e-12
3.14869e-12
3.11714e-12
3.08219e-12
3.05014e-12
3.01931e-12
2.99867e-12
2.96851e-12
2.94985e-12
2.92032e-12
2.91158e-12
2.8759e-12
2.86843e-12
2.83525e-12
2.83602e-12
2.80478e-12
2.80965e-12
2.77283e-12
2.77853e-12
2.74363e-12
2.75617e-12
2.72304e-12
2.73647e-12
2.70134e-12
2.71372e-12
2.6736e-12
2.68627e-12
2.64946e-12
2.65966e-12
2.6212e-12
2.62572e-12
2.57926e-12
2.59233e-12
2.56972e-12
2.5515e-12
2.49455e-12
2.52382e-12
2.43644e-12
2.46949e-12
2.44196e-12
1.81096e-12
2.6562e-12
2.8025e-12
1.81421e-12
1.95554e-12
4.08643e-12
4.1135e-12
3.91947e-12
3.66818e-12
3.96794e-12
3.63018e-12
3.55573e-12
3.57744e-12
3.49071e-12
3.4079e-12
3.38368e-12
3.323e-12
3.29038e-12
3.22346e-12
3.22526e-12
3.16085e-12
3.16465e-12
3.08094e-12
3.09975e-12
3.01758e-12
3.04362e-12
2.95203e-12
2.98787e-12
2.89718e-12
2.93811e-12
2.83239e-12
2.87963e-12
2.76286e-12
2.81642e-12
2.70925e-12
2.76872e-12
2.65318e-12
2.71591e-12
2.60893e-12
2.6846e-12
2.57626e-12
2.64637e-12
2.53871e-12
2.60664e-12
2.49977e-12
2.56224e-12
2.45898e-12
2.50139e-12
2.42189e-12
2.47392e-12
2.36827e-12
2.37844e-12
2.35931e-12
2.36622e-12
2.08587e-12
2.23475e-12
2.57379e-12
2.10151e-12
7.08022e-13
2.49812e-12
1.90141e-12
4.2773e-12
4.22218e-12
4.14362e-12
3.65969e-12
3.95738e-12
3.68163e-12
3.5873e-12
3.61261e-12
3.51157e-12
3.44763e-12
3.38894e-12
3.35977e-12
3.2993e-12
3.26151e-12
3.1852e-12
3.14673e-12
3.09322e-12
3.07982e-12
3.01822e-12
3.00207e-12
2.94228e-12
2.93418e-12
2.88562e-12
2.87038e-12
2.82991e-12
2.81789e-12
2.78998e-12
2.78045e-12
2.75896e-12
2.74724e-12
2.71492e-12
2.69359e-12
2.6703e-12
2.63342e-12
2.61437e-12
2.60583e-12
2.60981e-12
2.58843e-12
2.58858e-12
2.57318e-12
2.58898e-12
2.58383e-12
2.57264e-12
2.52836e-12
2.50313e-12
2.43742e-12
2.43354e-12
2.42694e-12
2.31816e-12
2.29485e-12
2.42816e-12
1.57467e-12
2.37e-12
2.71898e-12
1.7473e-12
1.68638e-12
4.45712e-12
4.3946e-12
4.21938e-12
3.90565e-12
4.0548e-12
3.73253e-12
3.65033e-12
3.66968e-12
3.50768e-12
3.4563e-12
3.36985e-12
3.36234e-12
3.21094e-12
3.23895e-12
3.09406e-12
3.17211e-12
2.98033e-12
3.0892e-12
2.88452e-12
3.03462e-12
2.79445e-12
2.98444e-12
2.70657e-12
2.93831e-12
2.64248e-12
2.91383e-12
2.60025e-12
2.90359e-12
2.56772e-12
2.89504e-12
2.54485e-12
2.89579e-12
2.54099e-12
2.90057e-12
2.51539e-12
2.86567e-12
2.47182e-12
2.82892e-12
2.4684e-12
2.80182e-12
2.43595e-12
2.74579e-12
2.40902e-12
2.69429e-12
2.43333e-12
2.64257e-12
2.30975e-12
2.50906e-12
2.28369e-12
2.28325e-12
2.04449e-12
2.40006e-12
2.26559e-12
9.10124e-13
2.07573e-12
1.63817e-12
4.66247e-12
4.80067e-12
4.33178e-12
4.38756e-12
4.49169e-12
4.11985e-12
4.12892e-12
4.09398e-12
3.9961e-12
3.87354e-12
3.8859e-12
3.75976e-12
3.78352e-12
3.64679e-12
3.70774e-12
3.541e-12
3.62671e-12
3.40097e-12
3.52981e-12
3.26668e-12
3.44409e-12
3.14823e-12
3.34837e-12
3.02267e-12
3.23179e-12
2.87266e-12
3.0826e-12
2.69111e-12
2.93625e-12
2.52715e-12
2.77393e-12
2.35413e-12
2.61407e-12
2.22811e-12
2.52522e-12
2.14625e-12
2.43832e-12
2.08469e-12
2.32498e-12
2.0167e-12
2.26166e-12
1.93614e-12
2.12343e-12
1.85984e-12
2.04811e-12
1.79404e-12
1.91826e-12
1.83295e-12
1.89718e-12
1.67801e-12
1.96892e-12
1.43951e-12
1.34662e-12
2.34407e-12
1.14845e-12
1.41758e-12
4.83972e-12
4.74638e-12
3.95877e-12
4.16557e-12
4.32563e-12
4.00413e-12
3.98356e-12
3.98317e-12
3.91132e-12
3.79641e-12
3.76449e-12
3.65713e-12
3.65405e-12
3.49748e-12
3.48525e-12
3.30794e-12
3.37198e-12
3.16111e-12
3.26595e-12
3.03189e-12
3.18008e-12
2.92123e-12
3.11338e-12
2.80265e-12
3.02991e-12
2.69334e-12
2.97965e-12
2.61743e-12
2.90843e-12
2.47409e-12
2.70026e-12
2.15415e-12
2.38048e-12
1.93727e-12
2.3436e-12
2.0043e-12
2.43058e-12
2.00983e-12
2.50391e-12
2.21299e-12
2.65529e-12
2.30376e-12
2.63698e-12
2.25373e-12
2.53501e-12
2.18544e-12
2.48198e-12
2.22142e-12
2.3349e-12
2.00978e-12
2.37863e-12
2.12372e-12
2.17548e-12
1.78254e-12
1.72803e-12
1.36723e-12
5.06859e-12
5.34627e-12
5.00494e-12
4.62807e-12
4.56152e-12
4.11357e-12
3.87998e-12
3.8853e-12
3.6804e-12
3.64574e-12
3.45979e-12
3.51538e-12
3.28933e-12
3.43119e-12
3.15637e-12
3.37778e-12
3.03472e-12
3.34256e-12
2.8985e-12
3.29202e-12
2.73311e-12
3.1935e-12
2.55146e-12
3.15305e-12
2.44239e-12
3.0842e-12
2.30558e-12
3.01714e-12
2.2025e-12
3.06138e-12
2.356e-12
3.46425e-12
2.80174e-12
3.72363e-12
2.7287e-12
3.4875e-12
2.50155e-12
3.26953e-12
2.37532e-12
2.86411e-12
1.90015e-12
2.59666e-12
1.88996e-12
2.50957e-12
1.89747e-12
2.37219e-12
1.79078e-12
2.19521e-12
1.73432e-12
1.87515e-12
1.49996e-12
1.31154e-12
1.34521e-12
1.06691e-12
1.00151e-12
1.17933e-12
5.1968e-12
4.79578e-12
4.96401e-12
4.4051e-12
4.45159e-12
4.4037e-12
4.36534e-12
4.25632e-12
4.15844e-12
4.065e-12
4.04107e-12
3.93472e-12
3.88482e-12
3.77424e-12
3.76857e-12
3.63496e-12
3.61056e-12
3.46747e-12
3.45979e-12
3.30676e-12
3.33069e-12
3.18153e-12
3.19902e-12
3.03787e-12
3.06668e-12
2.88338e-12
2.94272e-12
2.74033e-12
2.80084e-12
2.59688e-12
2.62378e-12
2.31119e-12
2.28502e-12
2.06809e-12
2.17051e-12
2.02895e-12
2.15489e-12
2.01487e-12
2.07889e-12
2.03507e-12
2.18416e-12
2.07633e-12
2.08409e-12
1.98916e-12
2.01935e-12
1.92046e-12
1.92588e-12
1.90936e-12
1.85568e-12
1.74004e-12
1.84114e-12
1.78739e-12
1.69362e-12
1.12107e-12
1.72085e-12
1.1395e-12
5.31093e-12
5.01911e-12
4.79582e-12
4.6011e-12
4.47461e-12
4.34205e-12
4.22977e-12
4.12971e-12
4.04374e-12
3.95698e-12
3.88275e-12
3.79917e-12
3.73061e-12
3.648e-12
3.58499e-12
3.50058e-12
3.44175e-12
3.35689e-12
3.3025e-12
3.2134e-12
3.16154e-12
3.0765e-12
3.06314e-12
3.01134e-12
2.96935e-12
2.82823e-12
2.73226e-12
2.60634e-12
2.59058e-12
2.55048e-12
2.57448e-12
2.5087e-12
2.50707e-12
2.44133e-12
2.44042e-12
2.3728e-12
2.37346e-12
2.3092e-12
2.30352e-12
2.24706e-12
2.24576e-12
2.18838e-12
2.18093e-12
2.12941e-12
2.1165e-12
2.05836e-12
2.03139e-12
1.97365e-12
1.92523e-12
1.84039e-12
1.77579e-12
1.68651e-12
1.59207e-12
1.4173e-12
1.27661e-12
1.03946e-12
)
;

boundaryField
{
    top
    {
        type            zeroGradient;
    }
    bottom
    {
        type            zeroGradient;
    }
    rotatingWall
    {
        type            zeroGradient;
    }
    wall
    {
        type            zeroGradient;
    }
    frontAndBack
    {
        type            empty;
    }
}


// ************************************************************************* //
