/*--------------------------------*- C++ -*----------------------------------*\
| =========                 |                                                 |
| \\      /  F ield         | OpenFOAM: The Open Source CFD Toolbox           |
|  \\    /   O peration     | Version:  5.0                                   |
|   \\  /    A nd           | Web:      www.OpenFOAM.org                      |
|    \\/     M anipulation  |                                                 |
\*---------------------------------------------------------------------------*/
FoamFile
{
    version     2.0;
    format      ascii;
    class       volVectorField;
    location    "2.9";
    object      U;
}
// * * * * * * * * * * * * * * * * * * * * * * * * * * * * * * * * * * * * * //

dimensions      [0 1 -1 0 0 0 0];

internalField   nonuniform List<vector> 
25
(
(1 -8.10573e-09 6.4648e-23)
(1 -1.00995e-08 3.23241e-23)
(1 -1.38577e-08 -3.23239e-23)
(1 -2.2425e-08 -3.51597e-28)
(1 -1.13429e-08 3.26282e-23)
(0.92 -2.91642e-08 -2.79792e-23)
(0.92 -2.7679e-08 2.96537e-28)
(0.92 -4.22256e-08 5.59593e-23)
(0.92 -7.14458e-08 -6.21858e-28)
(0.92 -3.95361e-08 -5.64503e-23)
(0.76 -4.64064e-08 2.79789e-23)
(0.76 -3.18101e-08 2.79791e-23)
(0.76 -5.54222e-08 2.79784e-23)
(0.76 -1.02522e-07 1.01844e-27)
(0.76 -6.08378e-08 -2.82627e-23)
(0.52 -5.03626e-08 5.59581e-23)
(0.52 -2.55208e-08 2.79792e-23)
(0.52 -5.03145e-08 -5.36779e-28)
(0.52 -1.04915e-07 -2.79795e-23)
(0.52 -6.20593e-08 -7.48119e-28)
(0.2 -1.99668e-08 3.98788e-23)
(0.2 -8.46151e-09 1.99393e-23)
(0.2 -1.82587e-08 1.21756e-28)
(0.2 -4.04554e-08 0)
(0.2 -2.37189e-08 0)
)
;

boundaryField
{
    top
    {
        type            fixedValue;
        value           uniform (0 0 0);
    }
    bottom
    {
        type            symmetryPlane;
    }
    inlet
    {
        type            pressureInletVelocity;
        value           nonuniform 0();
    }
    outlet
    {
        type            inletOutlet;
        inletValue      uniform (1 0 0);
        value           nonuniform List<vector> 5((1 -1.13429e-08 3.26282e-23) (0.92 -3.95361e-08 -5.64503e-23) (0.76 -6.08378e-08 -2.82627e-23) (0.52 -6.20593e-08 -7.48119e-28) (0.2 -2.37189e-08 0));
    }
    frontAndBack
    {
        type            empty;
    }
    procBoundary1to0
    {
        type            processor;
        value           nonuniform List<vector> 5((1 8.61156e-10 -1.35606e-30) (0.92 2.97127e-09 -2.79794e-23) (0.76 5.23976e-09 -5.59588e-23) (0.52 5.10045e-09 5.59588e-23) (0.2 1.82629e-09 3.98787e-23));
    }
}


// ************************************************************************* //
