/*--------------------------------*- C++ -*----------------------------------*\
| =========                 |                                                 |
| \\      /  F ield         | OpenFOAM: The Open Source CFD Toolbox           |
|  \\    /   O peration     | Version:  5.0                                   |
|   \\  /    A nd           | Web:      www.OpenFOAM.org                      |
|    \\/     M anipulation  |                                                 |
\*---------------------------------------------------------------------------*/
FoamFile
{
    version     2.0;
    format      ascii;
    class       surfaceScalarField;
    location    "407";
    object      phi;
}
// * * * * * * * * * * * * * * * * * * * * * * * * * * * * * * * * * * * * * //

dimensions      [0 3 -1 0 0 0 0];

internalField   nonuniform List<scalar> 
3052
(
1.22746e-24
-1.68673e-24
4.79068e-24
-3.57118e-24
1.00528e-23
-5.269e-24
1.66033e-23
-6.55665e-24
2.4236e-23
-7.63845e-24
3.28119e-23
-8.58124e-24
4.20986e-23
-9.29173e-24
5.19356e-23
-9.84182e-24
6.21847e-23
-1.02539e-23
7.27008e-23
-1.05206e-23
8.33502e-23
-1.06537e-23
9.40148e-23
-1.06687e-23
1.04584e-22
-1.05731e-23
1.14951e-22
-1.03711e-23
1.2502e-22
-1.00723e-23
1.34702e-22
-9.68461e-24
1.43912e-22
-9.21369e-24
1.52577e-22
-8.66724e-24
1.60626e-22
-8.05189e-24
1.67999e-22
-7.37502e-24
1.74639e-22
-6.64258e-24
1.80499e-22
-5.8619e-24
1.85537e-22
-5.03951e-24
1.897e-22
-4.16419e-24
1.92986e-22
-3.28764e-24
1.95393e-22
-2.40782e-24
1.96855e-22
-1.46223e-24
1.97343e-22
-4.87647e-25
1.96869e-22
4.74647e-25
1.95421e-22
1.44853e-24
1.93027e-22
2.39521e-24
1.89753e-22
3.27558e-24
1.85602e-22
4.153e-24
1.80576e-22
5.02849e-24
1.74727e-22
5.85131e-24
1.68098e-22
6.63181e-24
1.60735e-22
7.36644e-24
1.52695e-22
8.043e-24
1.44039e-22
8.65999e-24
1.34835e-22
9.20751e-24
1.25159e-22
9.67923e-24
1.15096e-22
1.00671e-23
1.04732e-22
1.03678e-23
9.41663e-23
1.057e-23
8.35023e-23
1.06684e-23
7.28532e-23
1.06537e-23
6.23396e-23
1.05183e-23
5.20921e-23
1.02525e-23
4.22488e-23
9.84877e-24
3.29626e-23
9.29127e-24
2.44009e-23
8.56743e-24
1.67446e-23
7.66229e-24
1.01904e-23
6.56013e-24
4.97717e-24
5.21961e-24
1.49053e-24
3.4918e-24
1.49125e-24
1.12501e-24
-2.81951e-24
4.28327e-24
-6.75171e-24
8.98591e-24
-9.99161e-24
1.50296e-23
-1.26187e-23
2.21618e-23
-1.47876e-23
3.01088e-23
-1.65445e-23
3.8744e-23
-1.79425e-23
4.79135e-23
-1.90264e-23
5.74568e-23
-1.98114e-23
6.72463e-23
-2.03238e-23
7.71658e-23
-2.05862e-23
8.70996e-23
-2.06149e-23
9.69401e-23
-2.04252e-23
1.06592e-22
-2.0034e-23
1.15965e-22
-1.94563e-23
1.24976e-22
-1.87051e-23
1.33547e-22
-1.77943e-23
1.4161e-22
-1.67378e-23
1.49098e-22
-1.55481e-23
1.55955e-22
-1.42383e-23
1.62128e-22
-1.28211e-23
1.67571e-22
-1.13097e-23
1.72243e-22
-9.71657e-24
1.7613e-22
-8.05446e-24
1.79209e-22
-6.36991e-24
1.81441e-22
-4.64153e-24
1.82805e-22
-2.82676e-24
1.83271e-22
-9.52172e-25
1.82819e-22
9.28889e-25
1.81466e-22
2.80433e-24
1.79246e-22
4.62065e-24
1.76177e-22
6.34935e-24
1.72302e-22
8.03418e-24
1.67641e-22
9.69701e-24
1.62209e-22
1.12919e-23
1.56045e-22
1.28039e-23
1.49198e-22
1.42229e-23
1.41718e-22
1.55337e-23
1.33663e-22
1.67252e-23
1.25099e-22
1.77831e-23
1.16094e-22
1.86958e-23
1.06725e-22
1.94486e-23
9.70764e-23
2.00288e-23
8.72385e-23
2.04212e-23
7.73086e-23
2.06124e-23
6.73911e-23
2.05856e-23
5.75997e-23
2.03253e-23
4.8056e-23
1.98125e-23
3.88933e-23
1.90275e-23
3.02561e-23
1.79465e-23
2.22968e-23
1.65449e-23
1.51943e-23
1.47827e-23
9.16281e-24
1.26109e-23
4.4426e-24
9.95618e-24
1.26576e-24
6.68648e-24
2.75791e-24
9.49911e-25
-3.77646e-24
3.70606e-24
-9.52451e-24
7.96361e-24
-1.42647e-23
1.34759e-23
-1.81456e-23
1.99837e-23
-2.13097e-23
2.73234e-23
-2.38977e-23
3.53118e-23
-2.59439e-23
4.37905e-23
-2.75174e-23
5.2628e-23
-2.86609e-23
6.17007e-23
-2.94076e-23
7.08909e-23
-2.9787e-23
8.00922e-23
-2.98263e-23
8.92095e-23
-2.9552e-23
9.81513e-23
-2.89847e-23
1.06833e-22
-2.8146e-23
1.15177e-22
-2.70571e-23
1.23114e-22
-2.57384e-23
1.30578e-22
-2.42078e-23
1.3751e-22
-2.24856e-23
1.43856e-22
-2.059e-23
1.49571e-22
-1.854e-23
1.54611e-22
-1.63536e-23
1.58943e-22
-1.40513e-23
1.62542e-22
-1.16556e-23
1.65366e-22
-9.1956e-24
1.67388e-22
-6.66354e-24
1.68607e-22
-4.04623e-24
1.69021e-22
-1.36494e-24
1.68617e-22
1.33434e-24
1.67408e-22
4.01595e-24
1.65398e-22
6.63432e-24
1.62584e-22
9.16751e-24
1.58994e-22
1.16287e-23
1.54671e-22
1.40253e-23
1.4964e-22
1.63289e-23
1.43934e-22
1.85169e-23
1.37595e-22
2.05691e-23
1.3067e-22
2.24666e-23
1.23213e-22
2.4191e-23
1.15281e-22
2.57239e-23
1.06941e-22
2.70451e-23
9.82639e-23
2.81362e-23
8.9326e-23
2.89773e-23
8.02106e-23
2.95479e-23
7.10095e-23
2.98253e-23
6.18198e-23
2.97879e-23
5.27478e-23
2.94102e-23
4.39088e-23
2.86651e-23
3.54274e-23
2.75243e-23
2.7437e-23
2.59514e-23
2.0098e-23
2.38991e-23
1.35781e-23
2.13188e-23
8.06538e-24
1.81381e-23
3.79325e-24
1.42486e-23
1.02026e-24
9.46948e-24
3.77893e-24
8.60636e-25
-4.64087e-24
3.2674e-24
-1.19434e-23
7.05047e-24
-1.80595e-23
1.20081e-23
-2.31148e-23
1.7939e-23
-2.72516e-23
2.46315e-23
-3.06009e-23
3.1941e-23
-3.32638e-23
3.97217e-23
-3.5308e-23
4.784e-23
-3.67883e-23
5.61783e-23
-3.77546e-23
6.46305e-23
-3.82475e-23
7.30967e-23
-3.83003e-23
8.14839e-23
-3.79464e-23
8.97091e-23
-3.72166e-23
9.76953e-23
-3.61382e-23
1.05371e-22
-3.47384e-23
1.1267e-22
-3.30426e-23
1.19534e-22
-3.10762e-23
1.25908e-22
-2.88637e-23
1.31744e-22
-2.6429e-23
1.36997e-22
-2.37963e-23
1.41632e-22
-2.099e-23
1.45613e-22
-1.80345e-23
1.48912e-22
-1.49551e-23
1.51492e-22
-1.17762e-23
1.53335e-22
-8.50599e-24
1.54439e-22
-5.1504e-24
1.54811e-22
-1.73552e-24
1.54448e-22
1.69832e-24
1.53351e-22
5.11417e-24
1.51517e-22
8.4709e-24
1.48945e-22
1.17424e-23
1.45654e-22
1.49221e-23
1.4168e-22
1.80032e-23
1.37053e-22
2.09605e-23
1.31805e-22
2.37691e-23
1.25976e-22
2.64037e-23
1.19607e-22
2.88411e-23
1.12749e-22
3.10562e-23
1.05454e-22
3.30254e-23
9.77822e-23
3.47243e-23
8.97987e-23
3.61278e-23
8.15754e-23
3.72092e-23
7.31896e-23
3.79428e-23
6.47247e-23
3.82998e-23
5.62726e-23
3.825e-23
4.79323e-23
3.77613e-23
3.98107e-23
3.67986e-23
3.20277e-23
3.53187e-23
2.47169e-23
3.32754e-23
1.80137e-23
3.06157e-23
1.20789e-23
2.72657e-23
7.11262e-24
2.31185e-23
3.31039e-24
1.80601e-23
8.81866e-25
1.19126e-23
4.66142e-24
7.66317e-25
-5.41097e-24
2.85986e-24
-1.40454e-23
6.23467e-24
-2.14431e-23
1.06593e-23
-2.75481e-23
1.59785e-23
-3.25795e-23
2.20242e-23
-3.66551e-23
2.86472e-23
-3.9895e-23
3.57108e-23
-4.23793e-23
4.30943e-23
-4.41791e-23
5.06875e-23
-4.53548e-23
5.8387e-23
-4.59535e-23
6.61018e-23
-4.6021e-23
7.37482e-23
-4.55983e-23
8.12477e-23
-4.47211e-23
8.85289e-23
-4.34239e-23
9.55267e-23
-4.17402e-23
1.02181e-22
-3.97005e-23
1.08438e-22
-3.73359e-23
1.14247e-22
-3.46755e-23
1.19564e-22
-3.17489e-23
1.24351e-22
-2.85846e-23
1.28571e-22
-2.52116e-23
1.32194e-22
-2.1658e-23
1.35191e-22
-1.79527e-23
1.37536e-22
-1.41213e-23
1.39214e-22
-1.01834e-23
1.40221e-22
-6.157e-24
1.40559e-22
-2.07263e-24
1.40227e-22
2.03154e-24
1.39226e-22
6.1165e-24
1.37555e-22
1.01439e-23
1.35216e-22
1.40832e-23
1.32224e-22
1.79161e-23
1.28607e-22
2.16232e-23
1.24392e-22
2.51785e-23
1.1961e-22
2.85539e-23
1.14297e-22
3.17209e-23
1.08492e-22
3.46504e-23
1.02239e-22
3.7314e-23
9.55876e-23
3.96822e-23
8.85926e-23
4.17254e-23
8.1314e-23
4.34129e-23
7.3816e-23
4.47142e-23
6.61707e-23
4.55955e-23
5.84555e-23
4.60228e-23
5.07549e-23
4.59592e-23
4.31606e-23
4.53645e-23
3.57761e-23
4.41923e-23
2.87099e-23
4.23958e-23
2.20792e-23
3.99166e-23
1.60276e-23
3.66774e-23
1.07084e-23
3.25958e-23
6.26419e-24
2.75718e-23
2.88531e-24
2.14552e-23
7.48948e-25
1.40539e-23
5.41086e-24
6.44696e-25
-6.05705e-24
2.50707e-24
-1.59147e-23
5.46021e-24
-2.4403e-23
9.37988e-24
-3.14747e-23
1.41057e-23
-3.73122e-23
1.95005e-23
-4.20568e-23
2.5427e-23
-4.58282e-23
3.17626e-23
-4.87213e-23
3.83968e-23
-5.08193e-23
4.52268e-23
-5.21903e-23
5.21592e-23
-5.2891e-23
5.91099e-23
-5.29764e-23
6.60006e-23
-5.24933e-23
7.27599e-23
-5.14843e-23
7.93235e-23
-4.99909e-23
8.56314e-23
-4.80512e-23
9.16298e-23
-4.57016e-23
9.72689e-23
-4.29774e-23
1.02504e-22
-3.9913e-23
1.07296e-22
-3.6542e-23
1.11608e-22
-3.28977e-23
1.15408e-22
-2.90125e-23
1.18668e-22
-2.4919e-23
1.21364e-22
-2.06487e-23
1.23474e-22
-1.62315e-23
1.24986e-22
-1.16944e-23
1.25894e-22
-7.06473e-24
1.26198e-22
-2.37598e-24
1.25898e-22
2.33285e-24
1.24994e-22
7.02206e-24
1.23486e-22
1.16527e-23
1.2138e-22
1.61911e-23
1.18688e-22
2.06097e-23
1.15431e-22
2.48819e-23
1.11635e-22
2.89776e-23
1.07326e-22
3.28652e-23
1.02537e-22
3.65126e-23
9.73045e-23
3.98867e-23
9.16679e-23
4.29546e-23
8.56719e-23
4.56826e-23
7.93657e-23
4.80364e-23
7.28035e-23
4.99805e-23
6.6045e-23
5.14784e-23
5.9155e-23
5.24917e-23
5.22044e-23
5.29801e-23
4.52712e-23
5.28993e-23
3.84409e-23
5.22023e-23
3.18039e-23
5.08378e-23
2.54639e-23
4.87439e-23
1.95388e-23
4.58507e-23
1.41415e-23
4.20841e-23
9.40086e-24
3.73448e-23
5.48112e-24
3.15011e-23
2.5232e-24
2.44167e-23
6.63543e-25
1.59247e-23
6.07481e-24
5.61704e-25
-6.62144e-24
2.17277e-24
-1.75312e-23
4.7419e-24
-2.6978e-23
8.16278e-24
-3.49015e-23
1.23053e-23
-4.14607e-23
1.70479e-23
-4.68053e-23
2.22737e-23
-5.10596e-23
2.78741e-23
-5.43272e-23
3.37477e-23
-5.66979e-23
3.98012e-23
-5.82486e-23
4.59519e-23
-5.90462e-23
5.21224e-23
-5.9151e-23
5.82419e-23
-5.86164e-23
6.42467e-23
-5.74925e-23
7.00785e-23
-5.58256e-23
7.56835e-23
-5.36588e-23
8.10133e-23
-5.10336e-23
8.60237e-23
-4.79898e-23
9.06749e-23
-4.45659e-23
9.49311e-23
-4.07996e-23
9.87602e-23
-3.67279e-23
1.02134e-22
-3.23871e-23
1.05028e-22
-2.78131e-23
1.07419e-22
-2.30408e-23
1.09293e-22
-1.81046e-23
1.10635e-22
-1.30368e-23
1.11443e-22
-7.87138e-24
1.11713e-22
-2.64524e-24
1.11445e-22
2.60163e-24
1.1064e-22
7.82834e-24
1.09299e-22
1.29947e-23
1.07428e-22
1.80636e-23
1.05038e-22
2.30015e-23
1.02146e-22
2.77756e-23
9.87744e-23
3.23519e-23
9.49468e-23
3.66953e-23
9.06923e-23
4.077e-23
8.60425e-23
4.45397e-23
8.10334e-23
4.79672e-23
7.57049e-23
5.10151e-23
7.0101e-23
5.36446e-23
6.42701e-23
5.5816e-23
5.8266e-23
5.74876e-23
5.21467e-23
5.86163e-23
4.59767e-23
5.91558e-23
3.98256e-23
5.90566e-23
3.37702e-23
5.82643e-23
2.78966e-23
5.67179e-23
2.22968e-23
5.43514e-23
1.70654e-23
5.109e-23
1.23188e-23
4.68379e-23
8.18021e-24
4.14902e-23
4.755e-24
3.4932e-23
2.17414e-24
2.70104e-23
5.60226e-25
1.75401e-23
6.63534e-24
4.83865e-25
-7.10618e-24
1.85332e-24
-1.89062e-23
4.05696e-24
-2.91869e-23
6.99265e-24
-3.78424e-23
1.05612e-23
-4.50343e-23
1.46587e-23
-5.09078e-23
1.91836e-23
-5.55894e-23
2.40418e-23
-5.91901e-23
2.91451e-23
-6.18058e-23
3.44117e-23
-6.35193e-23
3.97675e-23
-6.44058e-23
4.51435e-23
-6.45304e-23
5.04778e-23
-6.39538e-23
5.57138e-23
-6.27314e-23
6.07997e-23
-6.0914e-23
6.56883e-23
-5.85497e-23
7.03369e-23
-5.56843e-23
7.47069e-23
-5.23615e-23
7.87632e-23
-4.86237e-23
8.24744e-23
-4.45121e-23
8.58128e-23
-4.00672e-23
8.87535e-23
-3.53285e-23
9.1275e-23
-3.03352e-23
9.33594e-23
-2.51255e-23
9.49922e-23
-1.97373e-23
9.61636e-23
-1.4208e-23
9.68681e-23
-8.5754e-24
9.71033e-23
-2.87964e-24
9.68685e-23
2.83744e-24
9.61644e-23
8.53359e-24
9.49935e-23
1.4167e-23
9.33612e-23
1.96976e-23
9.12772e-23
2.50873e-23
8.8756e-23
3.02988e-23
8.58158e-23
3.52944e-23
8.24779e-23
4.00357e-23
7.8767e-23
4.44835e-23
7.47113e-23
4.85985e-23
7.03417e-23
5.234e-23
6.56935e-23
5.56668e-23
6.08053e-23
5.85366e-23
5.572e-23
6.09054e-23
5.04844e-23
6.27276e-23
4.51504e-23
6.3955e-23
3.97743e-23
6.45369e-23
3.44188e-23
6.44173e-23
2.91527e-23
6.35358e-23
2.4049e-23
6.18277e-23
1.91891e-23
5.92173e-23
1.46666e-23
5.56187e-23
1.05705e-23
5.09402e-23
6.99522e-24
4.50717e-23
4.0585e-24
3.78751e-23
1.85912e-24
2.92096e-23
4.85768e-25
1.89221e-23
7.12136e-24
4.01624e-25
-7.51023e-24
1.54976e-24
-2.00585e-23
3.39587e-24
-3.10374e-23
5.86184e-24
-4.03127e-23
8.86612e-24
-4.80428e-23
1.23224e-23
-5.43681e-23
1.61475e-23
-5.94184e-23
2.02612e-23
-6.33077e-23
2.45879e-23
-6.6136e-23
2.90579e-23
-6.79927e-23
3.36077e-23
-6.89586e-23
3.81775e-23
-6.91031e-23
4.27137e-23
-6.84924e-23
4.71676e-23
-6.71876e-23
5.14948e-23
-6.52432e-23
5.56546e-23
-6.27114e-23
5.96103e-23
-5.96416e-23
6.33288e-23
-5.60813e-23
6.67801e-23
-5.20762e-23
6.99376e-23
-4.76706e-23
7.27773e-23
-4.29077e-23
7.52784e-23
-3.78302e-23
7.74228e-23
-3.248e-23
7.91955e-23
-2.68984e-23
8.05844e-23
-2.11262e-23
8.15812e-23
-1.52045e-23
8.21808e-23
-9.17449e-24
8.23805e-23
-3.07871e-24
8.21797e-23
3.0392e-24
8.1579e-23
9.13535e-24
8.05812e-23
1.5166e-23
7.91914e-23
2.10889e-23
7.74179e-23
2.68625e-23
7.52726e-23
3.24459e-23
7.27707e-23
3.77983e-23
6.99303e-23
4.28783e-23
6.67722e-23
4.7644e-23
6.33203e-23
5.20528e-23
5.96016e-23
5.60615e-23
5.56457e-23
5.96257e-23
5.14859e-23
6.26995e-23
4.71588e-23
6.52358e-23
4.27051e-23
6.71849e-23
3.81694e-23
6.84945e-23
3.36003e-23
6.911e-23
2.90512e-23
6.89706e-23
2.45815e-23
6.80102e-23
2.02558e-23
6.61578e-23
1.61444e-23
6.33338e-23
1.23191e-23
5.94494e-23
8.86249e-24
5.44016e-23
5.86351e-24
4.80744e-23
3.39766e-24
4.03443e-23
1.55014e-24
3.10673e-23
3.98332e-25
2.00729e-23
7.51986e-24
3.25131e-25
-7.83569e-24
1.25657e-24
-2.09938e-23
2.75549e-24
-3.25398e-23
4.7618e-24
-4.23222e-23
7.20948e-24
-5.04936e-23
1.00304e-23
-5.7192e-23
1.31576e-23
-6.25485e-23
1.65253e-23
-6.66782e-23
2.00713e-23
-6.96847e-23
2.37382e-23
-7.16621e-23
2.7473e-23
-7.26957e-23
3.12263e-23
-7.28584e-23
3.49532e-23
-7.22212e-23
3.8614e-23
-7.085e-23
4.21711e-23
-6.88019e-23
4.5591e-23
-6.61326e-23
4.88432e-23
-6.28949e-23
5.19004e-23
-5.91395e-23
5.47378e-23
-5.49144e-23
5.73333e-23
-5.02667e-23
5.96674e-23
-4.52423e-23
6.17231e-23
-3.98862e-23
6.34854e-23
-3.42425e-23
6.49421e-23
-2.83551e-23
6.60835e-23
-2.22676e-23
6.69028e-23
-1.60236e-23
6.73955e-23
-9.66673e-24
6.75593e-23
-3.24188e-24
6.73934e-23
3.20594e-24
6.68984e-23
9.63123e-24
6.60768e-23
1.59888e-23
6.4933e-23
2.22338e-23
6.34743e-23
2.83226e-23
6.171e-23
3.42116e-23
5.96526e-23
3.98573e-23
5.73168e-23
4.52158e-23
5.47199e-23
5.02429e-23
5.18813e-23
5.48935e-23
4.88232e-23
5.91218e-23
4.55703e-23
6.28809e-23
4.215e-23
6.61223e-23
3.85928e-23
6.87957e-23
3.49324e-23
7.08481e-23
3.1206e-23
7.22237e-23
2.74534e-23
7.28657e-23
2.37197e-23
7.27076e-23
2.00547e-23
7.16784e-23
1.65106e-23
6.97057e-23
1.31445e-23
6.67036e-23
1.00207e-23
6.25767e-23
7.20372e-24
5.7222e-23
4.75615e-24
5.0526e-23
2.75219e-24
4.2352e-23
1.25618e-24
3.25605e-23
3.27091e-25
2.10087e-23
7.84708e-24
2.5116e-25
-8.08867e-24
9.71663e-25
-2.17162e-23
2.13109e-24
-3.37013e-23
3.68512e-24
-4.38784e-23
5.58353e-24
-5.2394e-23
7.77479e-24
-5.93852e-23
1.02064e-23
-6.49819e-23
1.28274e-23
-6.93011e-23
1.55897e-23
-7.24487e-23
1.84483e-23
-7.45222e-23
2.13614e-23
-7.56103e-23
2.42894e-23
-7.57877e-23
2.71985e-23
-7.51315e-23
3.00568e-23
-7.37093e-23
3.28347e-23
-7.15807e-23
3.55054e-23
-6.8804e-23
3.80452e-23
-6.54353e-23
4.04325e-23
-6.15273e-23
4.26482e-23
-5.71304e-23
4.46748e-23
-5.22937e-23
4.64973e-23
-4.70649e-23
4.81019e-23
-4.1491e-23
4.94776e-23
-3.56181e-23
5.06146e-23
-2.94921e-23
5.15057e-23
-2.31585e-23
5.21453e-23
-1.66628e-23
5.25297e-23
-1.00507e-23
5.26567e-23
-3.36843e-24
5.25261e-23
3.33728e-24
5.21384e-23
1.00196e-23
5.14957e-23
1.66323e-23
5.06015e-23
2.31289e-23
4.94614e-23
2.94638e-23
4.80829e-23
3.55913e-23
4.64755e-23
4.14659e-23
4.46507e-23
4.70419e-23
4.2622e-23
5.2273e-23
4.04046e-23
5.71124e-23
3.80158e-23
6.15122e-23
3.5475e-23
6.54234e-23
3.28036e-23
6.87954e-23
3.00255e-23
7.15757e-23
2.71675e-23
7.37081e-23
2.42589e-23
7.51342e-23
2.13323e-23
7.57945e-23
1.84209e-23
7.56212e-23
1.55644e-23
7.45375e-23
1.28046e-23
7.24679e-23
1.01874e-23
6.93231e-23
7.75988e-24
6.50072e-23
5.57121e-24
5.94132e-23
3.67717e-24
5.24209e-23
2.12733e-24
4.39031e-23
9.7094e-25
3.37247e-23
2.49353e-25
2.17272e-23
8.09648e-24
1.79045e-25
-8.26721e-24
6.91943e-25
-2.22305e-23
1.51849e-24
-3.45289e-23
2.62677e-24
-4.49876e-23
3.9816e-24
-5.37497e-23
5.54638e-24
-6.09508e-23
7.284e-24
-6.67204e-23
9.15879e-24
-7.11766e-23
1.11361e-23
-7.44267e-23
1.31822e-23
-7.6569e-23
1.52688e-23
-7.76974e-23
1.73657e-23
-7.78851e-23
1.94503e-23
-7.72166e-23
2.14989e-23
-7.57583e-23
2.34899e-23
-7.3572e-23
2.54038e-23
-7.07182e-23
2.7224e-23
-6.72556e-23
2.89348e-23
-6.32382e-23
3.05225e-23
-5.87181e-23
3.19746e-23
-5.37458e-23
3.32802e-23
-4.83705e-23
3.44298e-23
-4.26404e-23
3.54153e-23
-3.66034e-23
3.62297e-23
-3.03062e-23
3.68677e-23
-2.37962e-23
3.73253e-23
-1.712e-23
3.76e-23
-1.0325e-23
3.76904e-23
-3.45834e-24
3.75959e-23
3.43226e-24
3.73169e-23
1.02992e-23
3.6855e-23
1.70948e-23
3.6213e-23
2.37716e-23
3.53948e-23
3.02826e-23
3.4406e-23
3.65809e-23
3.32531e-23
4.26196e-23
3.19444e-23
4.83514e-23
3.04895e-23
5.37287e-23
2.88996e-23
5.87033e-23
2.71869e-23
6.32258e-23
2.53655e-23
6.72459e-23
2.34507e-23
7.07114e-23
2.14594e-23
7.35681e-23
1.9411e-23
7.57577e-23
1.73274e-23
7.72192e-23
1.5232e-23
7.78912e-23
1.31473e-23
7.77072e-23
1.11043e-23
7.65817e-23
9.13098e-24
7.44426e-23
7.25944e-24
7.11962e-23
5.52554e-24
6.67419e-23
3.96699e-24
6.09726e-23
2.61773e-24
5.37724e-23
1.51237e-24
4.50097e-23
6.87289e-25
3.45448e-23
1.77767e-25
2.22416e-23
8.27427e-24
1.07565e-25
-8.37579e-24
4.16658e-25
-2.25389e-23
9.14021e-25
-3.5026e-23
1.5805e-24
-4.56538e-23
2.39537e-24
-5.45643e-23
3.33646e-24
-6.18917e-23
4.38169e-24
-6.77654e-23
5.50949e-24
-7.23042e-23
6.70136e-24
-7.56184e-23
7.93745e-24
-7.78048e-23
9.1884e-24
-7.89481e-23
1.04493e-23
-7.91457e-23
1.17077e-23
-7.84747e-23
1.29428e-23
-7.69931e-23
1.414e-23
-7.47689e-23
1.52911e-23
-7.18691e-23
1.63861e-23
-6.83503e-23
1.74155e-23
-6.42673e-23
1.83707e-23
-5.9673e-23
1.92443e-23
-5.4619e-23
2.00296e-23
-4.91554e-23
2.07209e-23
-4.33313e-23
2.13131e-23
-3.71952e-23
2.18024e-23
-3.07951e-23
2.21855e-23
-2.41788e-23
2.24602e-23
-1.73942e-23
2.26245e-23
-1.04889e-23
2.26776e-23
-3.51116e-24
2.26194e-23
3.4908e-24
2.24503e-23
1.04687e-23
2.21711e-23
1.73743e-23
2.17834e-23
2.41596e-23
2.12896e-23
3.07767e-23
2.06932e-23
3.71778e-23
1.99981e-23
4.33151e-23
1.92093e-23
4.91405e-23
1.83327e-23
5.46058e-23
1.73748e-23
5.96615e-23
1.63433e-23
6.42577e-23
1.52467e-23
6.83429e-23
1.40945e-23
7.18639e-23
1.2897e-23
7.47661e-23
1.16623e-23
7.69928e-23
1.04047e-23
7.84771e-23
9.14551e-24
7.91506e-23
7.89748e-24
7.89556e-23
6.66459e-24
7.78151e-23
5.47599e-24
7.56314e-23
4.35348e-24
7.23186e-23
3.31492e-24
6.77811e-23
2.37746e-24
6.19104e-23
1.56591e-24
5.45822e-23
9.0608e-25
4.56688e-23
4.16172e-25
3.50401e-23
1.07268e-25
2.25458e-23
8.38148e-24
3.75594e-26
-8.41202e-24
1.4361e-25
-2.26438e-23
3.13959e-25
-3.51949e-23
5.41393e-25
-4.58798e-23
8.18438e-25
-5.484e-23
1.13773e-24
-6.22096e-23
1.49142e-24
-6.81178e-23
1.8712e-24
-7.26827e-23
2.26856e-24
-7.60145e-23
2.68068e-24
-7.82158e-23
3.10901e-24
-7.93754e-23
3.55343e-24
-7.95891e-23
3.97905e-24
-7.88994e-23
4.3852e-24
-7.73983e-23
4.78384e-24
-7.51666e-23
5.1697e-24
-7.22541e-23
5.53686e-24
-6.87167e-23
5.88191e-24
-6.46116e-23
6.20198e-24
-5.99924e-23
6.49453e-24
-5.49109e-23
6.75721e-24
-4.94174e-23
6.98816e-24
-4.35616e-23
7.18579e-24
-3.73921e-23
7.34878e-24
-3.09574e-23
7.47589e-24
-2.43054e-23
7.56642e-24
-1.74842e-23
7.61982e-24
-1.05419e-23
7.63585e-24
-3.52691e-24
7.6144e-24
3.51247e-24
7.55562e-24
1.05277e-23
7.45986e-24
1.74702e-23
7.3277e-24
2.42919e-23
7.16004e-24
3.09444e-23
6.95788e-24
3.738e-23
6.72278e-24
4.35502e-23
6.4562e-24
4.94071e-23
6.16034e-24
5.49015e-23
5.83736e-24
5.99844e-23
5.48997e-24
6.46049e-23
5.12105e-24
6.87116e-23
4.73416e-24
7.22506e-23
4.33506e-24
7.51648e-23
3.92932e-24
7.73981e-23
3.50482e-24
7.89011e-23
3.06231e-24
7.95927e-23
2.6365e-24
7.93808e-23
2.2279e-24
7.82228e-23
1.83581e-24
7.60228e-23
1.46056e-24
7.26933e-23
1.11019e-24
6.81299e-23
7.98559e-25
6.22205e-23
5.30321e-25
5.48508e-23
3.05749e-25
4.58922e-23
1.35474e-25
3.52033e-23
3.37538e-26
2.26504e-23
8.41514e-24
-3.29226e-26
-8.37932e-24
-1.2838e-25
-2.25452e-23
-2.84507e-25
-3.5036e-23
-4.956e-25
-4.5666e-23
-7.55222e-25
-5.45778e-23
-1.05673e-24
-6.19056e-23
-1.39303e-24
-6.7779e-23
-1.75603e-24
-7.23173e-23
-2.13762e-24
-7.56307e-23
-2.53496e-24
-7.78164e-23
-2.94952e-24
-7.89588e-23
-3.38133e-24
-7.91554e-23
-3.79543e-24
-7.84835e-23
-4.19129e-24
-7.70008e-23
-4.58096e-24
-7.47755e-23
-4.95895e-24
-7.18747e-23
-5.31951e-24
-6.83549e-23
-5.65906e-24
-6.42708e-23
-5.97483e-24
-5.96755e-23
-6.2642e-24
-5.46205e-23
-6.52482e-24
-4.91558e-23
-6.75471e-24
-4.33308e-23
-6.95233e-24
-3.71937e-23
-7.11632e-24
-3.07927e-23
-7.24556e-24
-2.41755e-23
-7.33925e-24
-1.739e-23
-7.39686e-24
-1.0484e-23
-7.41797e-24
-3.50553e-24
-7.40253e-24
3.49716e-24
-7.35055e-24
1.04758e-23
-7.26239e-24
1.7382e-23
-7.13844e-24
2.41678e-23
-6.97947e-24
3.07853e-23
-6.78653e-24
3.71867e-23
-6.56101e-24
4.33243e-23
-6.30441e-24
4.915e-23
-6.01867e-24
5.46153e-23
-5.70593e-24
5.9671e-23
-5.36879e-24
6.42671e-23
-5.0101e-24
6.8352e-23
-4.63326e-24
7.18727e-23
-4.24403e-24
7.47745e-23
-3.84782e-24
7.70007e-23
-3.43251e-24
7.84845e-23
-2.99869e-24
7.91572e-23
-2.58103e-24
7.89614e-23
-2.17993e-24
7.78203e-23
-1.79514e-24
7.56359e-23
-1.42649e-24
7.23221e-23
-1.08175e-24
6.77838e-23
-7.76022e-25
6.19129e-23
-5.14736e-25
5.45853e-23
-2.94992e-25
4.567e-23
-1.29535e-25
3.50407e-23
-3.24513e-26
2.25469e-23
8.38251e-24
-1.03523e-25
-8.27368e-24
-4.01908e-25
-2.22431e-23
-8.85096e-25
-3.45488e-23
-1.53567e-24
-4.50115e-23
-2.33363e-24
-5.3776e-23
-3.25777e-24
-6.09777e-23
-4.28618e-24
-6.6747e-23
-5.39772e-24
-7.12024e-23
-6.57426e-24
-7.44509e-23
-7.79594e-24
-7.65917e-23
-9.03345e-24
-7.77185e-23
-1.02822e-23
-7.7904e-23
-1.15299e-23
-7.72334e-23
-1.27552e-23
-7.57732e-23
-1.39436e-23
-7.35848e-23
-1.50873e-23
-7.07291e-23
-1.61759e-23
-6.72644e-23
-1.71999e-23
-6.32451e-23
-1.81509e-23
-5.8723e-23
-1.90213e-23
-5.37487e-23
-1.98045e-23
-4.83713e-23
-2.04948e-23
-4.26394e-23
-2.10872e-23
-3.66002e-23
-2.15776e-23
-3.03014e-23
-2.19628e-23
-2.37896e-23
-2.22403e-23
-1.71119e-23
-2.24086e-23
-1.03152e-23
-2.24667e-23
-3.44716e-24
-2.24144e-23
3.44494e-24
-2.22517e-23
1.0313e-23
-2.19797e-23
1.71098e-23
-2.15998e-23
2.37876e-23
-2.11147e-23
3.02996e-23
-2.05271e-23
3.65986e-23
-1.98415e-23
4.26379e-23
-1.90622e-23
4.83699e-23
-1.81954e-23
5.37475e-23
-1.72474e-23
5.87219e-23
-1.6226e-23
6.32443e-23
-1.51392e-23
6.72638e-23
-1.39969e-23
7.07287e-23
-1.28087e-23
7.35845e-23
-1.15832e-23
7.57731e-23
-1.03343e-23
7.72333e-23
-9.08356e-24
7.79042e-23
-7.84361e-24
7.7719e-23
-6.61837e-24
7.65918e-23
-5.43593e-24
7.44506e-23
-4.31984e-24
7.12035e-23
-3.28902e-24
6.67488e-23
-2.35661e-24
6.09766e-23
-1.54768e-24
5.37747e-23
-8.95048e-25
4.50134e-23
-4.12791e-25
3.45494e-23
-1.08428e-25
2.22431e-23
8.27386e-24
-1.74238e-25
-8.0988e-24
-6.77319e-25
-2.17341e-23
-1.49083e-24
-3.37298e-23
-2.58425e-24
-4.39129e-23
-3.92322e-24
-5.24319e-23
-5.47203e-24
-5.9424e-23
-7.19421e-24
-6.50201e-23
-9.05414e-24
-6.9338e-23
-1.10171e-23
-7.24838e-23
-1.30501e-23
-7.45548e-23
-1.51245e-23
-7.56404e-23
-1.72102e-23
-7.58149e-23
-1.92845e-23
-7.51559e-23
-2.13241e-23
-7.37307e-23
-2.33069e-23
-7.15993e-23
-2.52139e-23
-6.88196e-23
-2.70279e-23
-6.54481e-23
-2.87339e-23
-6.1537e-23
-3.03174e-23
-5.71374e-23
-3.17668e-23
-5.22976e-23
-3.30703e-23
-4.70662e-23
-3.42191e-23
-4.14893e-23
-3.52042e-23
-3.56139e-23
-3.60197e-23
-2.9485e-23
-3.66594e-23
-2.3149e-23
-3.71202e-23
-1.66506e-23
-3.73984e-23
-1.00365e-23
-3.74934e-23
-3.35201e-24
-3.74039e-23
3.35549e-24
-3.71313e-23
1.00401e-23
-3.66761e-23
1.66543e-23
-3.60417e-23
2.31526e-23
-3.52312e-23
2.94885e-23
-3.42508e-23
3.56172e-23
-3.31063e-23
4.14924e-23
-3.18069e-23
4.70691e-23
-3.03611e-23
5.23003e-23
-2.87806e-23
5.71397e-23
-2.7077e-23
6.15389e-23
-2.52651e-23
6.54496e-23
-2.33592e-23
6.88205e-23
-2.1377e-23
7.15995e-23
-1.93371e-23
7.37304e-23
-1.72619e-23
7.5155e-23
-1.51743e-23
7.58132e-23
-1.30969e-23
7.56376e-23
-1.10603e-23
7.45519e-23
-9.0947e-24
7.24809e-23
-7.22927e-24
6.93329e-23
-5.49745e-24
6.50135e-23
-3.94562e-24
5.94207e-23
-2.60658e-24
5.24285e-23
-1.50343e-24
4.39056e-23
-6.78893e-25
3.37244e-23
-1.74131e-25
2.173e-23
8.09941e-24
-2.47464e-25
-7.84835e-24
-9.58112e-25
-2.10168e-23
-2.10574e-24
-3.25754e-23
-3.64623e-24
-4.23657e-23
-5.53076e-24
-5.0541e-23
-7.70764e-24
-5.7241e-23
-1.01254e-23
-6.25966e-23
-1.27334e-23
-6.67245e-23
-1.54835e-23
-6.97286e-23
-1.83304e-23
-7.1703e-23
-2.12329e-23
-7.27334e-23
-2.41508e-23
-7.28927e-23
-2.70511e-23
-7.22517e-23
-2.99011e-23
-7.08769e-23
-3.26719e-23
-6.88252e-23
-3.53362e-23
-6.61521e-23
-3.78706e-23
-6.29109e-23
-4.02533e-23
-5.91516e-23
-4.24654e-23
-5.4923e-23
-4.44892e-23
-5.02715e-23
-4.63098e-23
-4.52438e-23
-4.79136e-23
-3.98838e-23
-4.92893e-23
-3.4237e-23
-5.04271e-23
-2.8346e-23
-5.13198e-23
-2.22556e-23
-5.19616e-23
-1.60081e-23
-5.23491e-23
-9.64862e-24
-5.24804e-23
-3.22047e-24
-5.23546e-23
3.22953e-24
-5.19723e-23
9.65758e-24
-5.13355e-23
1.60168e-23
-5.04478e-23
2.22643e-23
-4.93147e-23
2.83543e-23
-4.79437e-23
3.42451e-23
-4.6344e-23
3.98913e-23
-4.45274e-23
4.52509e-23
-4.25067e-23
5.02776e-23
-4.02977e-23
5.49285e-23
-3.79172e-23
5.91559e-23
-3.53848e-23
6.29144e-23
-3.27216e-23
6.6154e-23
-2.99517e-23
6.88263e-23
-2.71013e-23
7.08763e-23
-2.42003e-23
7.22499e-23
-2.12805e-23
7.28891e-23
-1.83762e-23
7.27292e-23
-1.55261e-23
7.16965e-23
-1.27705e-23
6.972e-23
-1.01581e-23
6.67162e-23
-7.74045e-24
6.25891e-23
-5.55505e-24
5.72284e-23
-3.65749e-24
5.05272e-23
-2.1168e-24
4.23579e-23
-9.71807e-25
3.25681e-23
-2.53997e-25
2.10102e-23
7.84506e-24
-3.20898e-25
-7.52577e-24
-1.2444e-24
-2.00847e-23
-2.73271e-24
-3.10788e-23
-4.72787e-24
-4.03627e-23
-7.16405e-24
-4.80973e-23
-9.97354e-24
-5.44243e-23
-1.30895e-23
-5.94737e-23
-1.64463e-23
-6.33612e-23
-1.99822e-23
-6.61865e-23
-2.36394e-23
-6.80401e-23
-2.73657e-23
-6.90018e-23
-3.11106e-23
-6.91428e-23
-3.48301e-23
-6.85276e-23
-3.84837e-23
-6.7219e-23
-4.20351e-23
-6.52698e-23
-4.54492e-23
-6.27343e-23
-4.86973e-23
-5.96596e-23
-5.175e-23
-5.60958e-23
-5.45848e-23
-5.20856e-23
-5.71773e-23
-4.76766e-23
-5.95105e-23
-4.29086e-23
-6.15643e-23
-3.78281e-23
-6.33272e-23
-3.24727e-23
-6.47837e-23
-2.68882e-23
-6.59274e-23
-2.11111e-23
-6.67478e-23
-1.51868e-23
-6.72441e-23
-9.15209e-24
-6.74099e-23
-3.05434e-24
-6.72487e-23
3.06796e-24
-6.67571e-23
9.16562e-24
-6.59415e-23
1.52003e-23
-6.48023e-23
2.11242e-23
-6.33504e-23
2.69011e-23
-6.15914e-23
3.24848e-23
-5.95417e-23
3.78397e-23
-5.72117e-23
4.2919e-23
-5.46228e-23
4.76862e-23
-5.17903e-23
5.20935e-23
-4.87403e-23
5.61027e-23
-4.54935e-23
5.96644e-23
-4.20811e-23
6.27378e-23
-3.85297e-23
6.5271e-23
-3.48766e-23
6.72186e-23
-3.11559e-23
6.85248e-23
-2.74103e-23
6.91384e-23
-2.3681e-23
6.89942e-23
-2.00213e-23
6.80313e-23
-1.64836e-23
6.61767e-23
-1.31231e-23
6.3348e-23
-9.99681e-24
5.94567e-23
-7.1848e-24
5.44106e-23
-4.75327e-24
4.80855e-23
-2.74721e-24
4.0345e-23
-1.24549e-24
3.1063e-23
-3.20257e-25
2.00752e-23
7.52438e-24
-3.98148e-25
-7.1239e-24
-1.53967e-24
-1.89338e-23
-3.3777e-24
-2.92315e-23
-5.83499e-24
-3.78965e-23
-8.83035e-24
-4.50932e-23
-1.22786e-23
-5.09678e-23
-1.60954e-23
-5.56489e-23
-2.02015e-23
-5.92476e-23
-2.45207e-23
-6.18601e-23
-2.8984e-23
-6.35702e-23
-3.35268e-23
-6.44527e-23
-3.80907e-23
-6.45732e-23
-4.26207e-23
-6.39921e-23
-4.70698e-23
-6.27652e-23
-5.13918e-23
-6.09432e-23
-5.55477e-23
-5.85744e-23
-5.94993e-23
-5.57041e-23
-6.32152e-23
-5.23767e-23
-6.66634e-23
-4.86341e-23
-6.98195e-23
-4.45181e-23
-7.26572e-23
-4.00684e-23
-7.5158e-23
-3.53255e-23
-7.73015e-23
-3.03273e-23
-7.9075e-23
-2.51137e-23
-8.04641e-23
-1.97207e-23
-8.14628e-23
-1.41877e-23
-8.20635e-23
-8.55068e-24
-8.22663e-23
-2.85188e-24
-8.20676e-23
2.8693e-24
-8.14709e-23
8.56795e-24
-8.04761e-23
1.4205e-23
-7.9091e-23
1.97374e-23
-7.73212e-23
2.51301e-23
-7.51813e-23
3.03425e-23
-7.26838e-23
3.53402e-23
-6.98492e-23
4.00814e-23
-6.66961e-23
4.45304e-23
-6.32501e-23
4.8644e-23
-5.95363e-23
5.23855e-23
-5.55863e-23
5.57101e-23
-5.14314e-23
5.85789e-23
-4.71101e-23
6.09446e-23
-4.26613e-23
6.27651e-23
-3.81307e-23
6.39885e-23
-3.35656e-23
6.45675e-23
-2.90216e-23
6.44442e-23
-2.45567e-23
6.35599e-23
-2.02324e-23
6.18447e-23
-1.61231e-23
5.92323e-23
-1.23087e-23
5.5634e-23
-8.85593e-24
5.09477e-23
-5.84439e-24
4.50685e-23
-3.38824e-24
3.78799e-23
-1.5565e-24
2.92183e-23
-4.07994e-25
1.8923e-23
7.11597e-24
-4.78718e-25
-6.64264e-24
-1.84637e-24
-1.75555e-23
-4.04419e-24
-2.70235e-23
-6.97577e-24
-3.4955e-23
-1.05396e-23
-4.15199e-23
-1.46319e-23
-4.68662e-23
-1.91522e-23
-5.11197e-23
-2.40064e-23
-5.43849e-23
-2.91051e-23
-5.67534e-23
-3.43677e-23
-5.83e-23
-3.9719e-23
-5.90944e-23
-4.50916e-23
-5.91939e-23
-5.04216e-23
-5.8656e-23
-5.56546e-23
-5.75265e-23
-6.07366e-23
-5.58562e-23
-6.56232e-23
-5.36831e-23
-7.02683e-23
-5.10549e-23
-7.4637e-23
-4.80042e-23
-7.86901e-23
-4.45777e-23
-8.24012e-23
-4.08041e-23
-8.57368e-23
-3.67303e-23
-8.86782e-23
-3.23819e-23
-9.11975e-23
-2.78063e-23
-9.32835e-23
-2.30261e-23
-9.49146e-23
-1.80887e-23
-9.60885e-23
-1.3013e-23
-9.67919e-23
-7.8472e-24
-9.70305e-23
-2.61324e-24
-9.67949e-23
2.63315e-24
-9.60949e-23
7.86721e-24
-9.49237e-23
1.30323e-23
-9.32961e-23
1.81081e-23
-9.12124e-23
2.3044e-23
-8.86968e-23
2.78243e-23
-8.57573e-23
3.23975e-23
-8.24252e-23
3.6746e-23
-7.87152e-23
4.08165e-23
-7.46652e-23
4.45901e-23
-7.02969e-23
4.80129e-23
-6.56545e-23
5.10632e-23
-6.07675e-23
5.3687e-23
-5.56876e-23
5.58596e-23
-5.04533e-23
5.75251e-23
-4.51244e-23
5.86538e-23
-3.97503e-23
5.91871e-23
-3.4399e-23
5.9086e-23
-2.91328e-23
5.82864e-23
-2.40357e-23
5.67405e-23
-1.91794e-23
5.4367e-23
-1.46512e-23
5.10967e-23
-1.05555e-23
4.68449e-23
-7.00024e-24
4.1502e-23
-4.06095e-24
3.49322e-23
-1.84726e-24
2.70001e-23
-4.74695e-25
1.75403e-23
6.64085e-24
-5.61237e-25
-6.07722e-24
-2.16841e-24
-1.59374e-23
-4.73943e-24
-2.44413e-23
-8.15878e-24
-3.15248e-23
-1.23004e-23
-3.73676e-23
-1.7043e-23
-4.21133e-23
-2.22688e-23
-4.5884e-23
-2.78675e-23
-4.87768e-23
-3.374e-23
-5.08719e-23
-3.97924e-23
-5.22391e-23
-4.59422e-23
-5.29368e-23
-5.21103e-23
-5.30185e-23
-5.82292e-23
-5.25304e-23
-6.42317e-23
-5.15177e-23
-7.00628e-23
-5.00194e-23
-7.56651e-23
-4.80755e-23
-8.09948e-23
-4.57206e-23
-8.60025e-23