/*--------------------------------*- C++ -*----------------------------------*\
| =========                 |                                                 |
| \\      /  F ield         | OpenFOAM: The Open Source CFD Toolbox           |
|  \\    /   O peration     | Version:  5.0                                   |
|   \\  /    A nd           | Web:      www.OpenFOAM.org                      |
|    \\/     M anipulation  |                                                 |
\*---------------------------------------------------------------------------*/
FoamFile
{
    version     2.0;
    format      ascii;
    class       surfaceScalarField;
    location    "249";
    object      phi;
}
// * * * * * * * * * * * * * * * * * * * * * * * * * * * * * * * * * * * * * //

dimensions      [0 3 -1 0 0 0 0];

internalField   nonuniform List<scalar> 
3052
(
2.44414e-22
-4.4247e-22
1.08335e-21
-8.89233e-22
2.8899e-21
-1.83769e-21
4.88845e-21
-2.043e-21
7.11866e-21
-2.25747e-21
9.77344e-21
-2.67855e-21
1.26113e-20
-2.85355e-21
1.55846e-20
-2.98877e-21
1.87e-20
-3.13621e-21
2.19002e-20
-3.21918e-21
2.51321e-20
-3.24926e-21
2.83681e-20
-3.25305e-21
3.15772e-20
-3.22548e-21
3.47231e-20
-3.16115e-21
3.77762e-20
-3.06995e-21
4.07116e-20
-2.95186e-21
4.35017e-20
-2.80664e-21
4.61259e-20
-2.63945e-21
4.85611e-20
-2.45072e-21
5.07907e-20
-2.24384e-21
5.27953e-20
-2.0183e-21
5.45645e-20
-1.78029e-21
5.60818e-20
-1.52729e-21
5.73342e-20
-1.25941e-21
5.83158e-20
-9.88643e-22
5.90335e-20
-7.22748e-22
5.94612e-20
-4.32309e-22
5.95969e-20
-1.36863e-22
5.94338e-20
1.62302e-22
5.89813e-20
4.53431e-22
5.8241e-20
7.43212e-22
5.72394e-20
1.01027e-21
5.59662e-20
1.28535e-21
5.44356e-20
1.54622e-21
5.26544e-20
1.79789e-21
5.06442e-20
2.02925e-21
4.8407e-20
2.25507e-21
4.59724e-20
2.4542e-21
4.33496e-20
2.64236e-21
4.05637e-20
2.80484e-21
3.76339e-20
2.94519e-21
3.45933e-20
3.05564e-21
3.14603e-20
3.14626e-21
2.82708e-20
3.20361e-21
2.50527e-20
3.2321e-21
2.1845e-20
3.22326e-21
1.86797e-20
3.18118e-21
1.55985e-20
3.0972e-21
1.26415e-20
2.97539e-21
9.8548e-21
2.80285e-21
7.28385e-21
2.57855e-21
4.99736e-21
2.30579e-21
3.05333e-21
1.9704e-21
1.46846e-21
1.59096e-21
4.42931e-22
1.03707e-21
4.43791e-22
5.0332e-22
-9.93701e-22
1.47408e-21
-1.89134e-21
2.58914e-21
-3.12949e-21
4.36154e-21
-3.89151e-21
6.61073e-21
-4.58539e-21
8.98779e-21
-5.10368e-21
1.15943e-20
-5.50335e-21
1.43942e-20
-5.84092e-21
1.72905e-20
-6.07937e-21
2.02536e-20
-6.23129e-21
2.32659e-20
-6.30822e-21
2.62853e-20
-6.31451e-21
2.92726e-20
-6.25308e-21
3.21991e-20
-6.13274e-21
3.50419e-20
-5.95538e-21
3.77714e-20
-5.72512e-21
4.03686e-20
-5.44459e-21
4.28088e-20
-5.12091e-21
4.50756e-20
-4.75392e-21
4.71471e-20
-4.35139e-21
4.90128e-20
-3.9134e-21
5.06535e-20
-3.44875e-21
5.20634e-20
-2.95586e-21
5.32314e-20
-2.44608e-21
5.41572e-20
-1.92637e-21
5.48201e-20
-1.39737e-21
5.5222e-20
-8.38366e-22
5.53467e-20
-2.66188e-22
5.51972e-20
3.13002e-22
5.47688e-20
8.86419e-22
5.40816e-20
1.44762e-21
5.31393e-20
1.97759e-21
5.19621e-20
2.49977e-21
5.05438e-20
3.00605e-21
4.88951e-20
3.49465e-21
4.70207e-20
3.94924e-21
4.49468e-20
4.38036e-21
4.26784e-20
4.77215e-21
4.02409e-20
5.1294e-21
3.76477e-20
5.44069e-21
3.49234e-20
5.71174e-21
3.20834e-20
5.93005e-21
2.91653e-20
6.10075e-21
2.61917e-20
6.21268e-21
2.31958e-20
6.26731e-21
2.02052e-20
6.25359e-21
1.72574e-20
6.1709e-21
1.43906e-20
6.01144e-21
1.16409e-20
5.76664e-21
9.0436e-21
5.42914e-21
6.66526e-21
5.01908e-21
4.53626e-21
4.47754e-21
2.72822e-21
3.8028e-21
1.36398e-21
3.02217e-21
3.87461e-22
2.01739e-21
8.31484e-22
1.63714e-22
-1.14756e-21
1.07718e-21
-2.93943e-21
2.34023e-21
-4.42831e-21
4.0105e-21
-5.60892e-21
5.94204e-21
-6.54155e-21
8.159e-21
-7.34406e-21
1.05863e-20
-7.94884e-21
1.3162e-20
-8.42874e-21
1.58427e-20
-8.77777e-21
1.85982e-20
-8.99941e-21
2.13902e-20
-9.10936e-21
2.41816e-20
-9.11792e-21
2.69475e-20
-9.03452e-21
2.9662e-20
-8.85951e-21
3.22944e-20
-8.60193e-21
3.48242e-20
-8.26713e-21
3.72301e-20
-7.86244e-21
3.94915e-20
-7.3905e-21
4.15898e-20
-6.86116e-21
4.35104e-20
-6.27771e-21
4.52381e-20
-5.64769e-21
4.6761e-20
-4.97376e-21
4.80674e-20
-4.26645e-21
4.9151e-20
-3.53002e-21
4.99985e-20
-2.77607e-21
5.06017e-20
-1.99973e-21
5.09608e-20
-1.19936e-21
5.10743e-20
-3.77868e-22
5.0939e-20
4.48316e-22
5.05602e-20
1.26914e-21
4.99409e-20
2.07147e-21
4.90789e-20
2.85016e-21
4.79827e-20
3.60504e-21
4.66648e-20
4.33561e-21
4.51348e-20
5.03427e-21
4.34014e-20
5.69698e-21
4.14776e-20
6.31577e-21
3.93775e-20
6.88555e-21
3.71177e-20
7.40094e-21
3.4714e-20
7.85702e-21
3.21875e-20
8.24548e-21
2.95614e-20
8.56637e-21
2.68581e-20
8.81299e-21
2.41018e-20
8.9792e-21
2.13228e-20
9.05547e-21
1.8551e-20
9.03844e-21
1.58182e-20
8.91822e-21
1.31563e-20
8.6829e-21
1.06085e-20
8.33485e-21
8.214e-21
7.86134e-21
6.00179e-21
7.21754e-21
4.0591e-21
6.44318e-21
2.42966e-21
5.50206e-21
1.12307e-21
4.30523e-21
2.92054e-22
2.87064e-21
1.12473e-21
2.1672e-22
-1.38382e-21
9.90775e-22
-3.72663e-21
2.08582e-21
-5.51499e-21
3.56423e-21
-7.08817e-21
5.36715e-21
-8.34602e-21
7.37543e-21
-9.34412e-21
9.58884e-21
-1.01539e-20
1.19509e-20
-1.07807e-20
1.44142e-20
-1.12226e-20
1.69445e-20
-1.15108e-20
1.95111e-20
-1.16629e-20
2.20817e-20
-1.16777e-20
2.46262e-20
-1.15668e-20
2.71212e-20
-1.13429e-20
2.95437e-20
-1.10124e-20
3.18725e-20
-1.05825e-20
3.40862e-20
-1.00613e-20
3.61677e-20
-9.45747e-21
3.81e-20
-8.77841e-21
3.9868e-20
-8.03142e-21
4.14584e-20
-7.22366e-21
4.28592e-20
-6.3636e-21
4.40608e-20
-5.45863e-21
4.5054e-20
-4.51619e-21
4.58289e-20
-3.5445e-21
4.63791e-20
-2.54557e-21
4.67059e-20
-1.52142e-21
4.68097e-20
-4.80039e-22
4.66926e-20
5.66787e-22
4.63518e-20
1.6094e-21
4.57872e-20
2.633e-21
4.4997e-20
3.6296e-21
4.39913e-20
4.59616e-21
4.27769e-20
5.53176e-21
4.13667e-20
6.42723e-21
3.97686e-20
7.27644e-21
3.79969e-20
8.06979e-21
3.6062e-20
8.80242e-21
3.39809e-20
9.46476e-21
3.17696e-20
1.00513e-20
2.94464e-20
1.05559e-20
2.70297e-20
1.09717e-20
2.45422e-20
1.12889e-20
2.20069e-20
1.15019e-20
1.945e-20
1.16021e-20
1.68979e-20
1.1579e-20
1.43806e-20
1.14223e-20
1.19369e-20
1.11282e-20
9.59923e-21
1.06733e-20
7.39682e-21
1.00402e-20
5.39277e-21
9.24917e-21
3.60977e-21
8.24416e-21
2.10736e-21
6.96072e-21
1.0099e-21
5.45692e-21
2.81735e-22
3.59943e-21
1.40658e-21
2.72369e-22
-1.66315e-21
8.40997e-22
-4.25667e-21
1.88399e-21
-6.53853e-21
3.19978e-21
-8.38578e-21
4.79364e-21
-9.9262e-21
6.60978e-21
-1.11559e-20
8.61338e-21
-1.21462e-20
1.07532e-20
-1.29014e-20
1.29936e-20
-1.34418e-20
1.53009e-20
-1.38004e-20
1.7637e-20
-1.39834e-20
1.99763e-20
-1.40021e-20
2.22965e-20
-1.38719e-20
2.45724e-20
-1.36038e-20
2.67823e-20
-1.32057e-20
2.89064e-20
-1.26895e-20
3.09256e-20
-1.20636e-20
3.28233e-20
-1.13392e-20
3.45848e-20
-1.0524e-20
3.61971e-20
-9.62833e-21
3.7647e-20
-8.66032e-21
3.8924e-20
-7.62968e-21
4.00179e-20
-6.54356e-21
4.0921e-20
-5.41257e-21
4.16251e-20
-4.24307e-21
4.21271e-20
-3.04251e-21
4.24249e-20
-1.81576e-21
4.25206e-20
-5.72699e-22
4.24137e-20
6.76118e-22
4.21051e-20
1.9174e-21
4.15919e-20
3.13975e-21
4.08747e-20
4.33462e-21
3.9957e-20
5.49601e-21
3.88511e-20
6.61778e-21
3.75648e-20
7.6921e-21
3.61087e-20
8.71052e-21
3.44919e-20
9.66435e-21
3.2728e-20
1.05445e-20
3.08286e-20
1.13436e-20
2.88107e-20
1.2052e-20
2.66917e-20
1.26613e-20
2.44896e-20
1.31617e-20
2.22212e-20
1.35462e-20
1.99095e-20
1.38031e-20
1.75769e-20
1.39227e-20
1.52505e-20
1.38949e-20
1.29597e-20
1.37083e-20
1.07335e-20
1.33426e-20
8.60714e-21
1.27945e-20
6.62068e-21
1.20521e-20
4.79628e-21
1.10548e-20
3.20481e-21
9.81476e-21
1.88876e-21
8.33414e-21
8.42818e-22
6.47377e-21
2.01714e-22
4.25471e-21
1.60933e-21
1.75452e-22
-1.82462e-21
7.61956e-22
-4.80915e-21
1.65163e-21
-7.3988e-21
2.83519e-21
-9.55501e-21
4.24552e-21
-1.13374e-20
5.86957e-21
-1.27784e-20
7.65968e-21
-1.393e-20
9.57613e-21
-1.48083e-20
1.15871e-20
-1.54441e-20
1.36598e-20
-1.58648e-20
1.57622e-20
-1.60785e-20
1.78708e-20
-1.61037e-20
1.99622e-20
-1.59559e-20
2.20141e-20
-1.56469e-20
2.40073e-20
-1.51894e-20
2.59222e-20
-1.45953e-20
2.77428e-20
-1.3876e-20
2.94534e-20
-1.30423e-20
3.10415e-20
-1.21047e-20
3.24936e-20
-1.1074e-20
3.37999e-20
-9.96059e-21
3.49497e-20
-8.77418e-21
3.59349e-20
-7.52478e-21
3.67475e-20
-6.22218e-21
3.73823e-20
-4.87526e-21
3.78346e-20
-3.49276e-21
3.81043e-20
-2.08315e-21
3.81909e-20
-6.56469e-22
3.80947e-20
7.74625e-22
3.78149e-20
2.19784e-21
3.73514e-20
3.60119e-21
3.6705e-20
4.97459e-21
3.58813e-20
6.31088e-21
3.48864e-20
7.60182e-21
3.3728e-20
8.83841e-21
3.2415e-20
1.00106e-20
3.09578e-20
1.11095e-20
2.93662e-20
1.21242e-20
2.76541e-20
1.30454e-20
2.58352e-20
1.38632e-20
2.39244e-20
1.4567e-20
2.19371e-20
1.5146e-20
1.98919e-20
1.55894e-20
1.78073e-20
1.58854e-20
1.57059e-20
1.6023e-20
1.36115e-20
1.59884e-20
1.15496e-20
1.57668e-20
9.54986e-21
1.5349e-20
7.64499e-21
1.47112e-20
5.86333e-21
1.38209e-20
4.2491e-21
1.2689e-20
2.82346e-21
1.12714e-20
1.62902e-21
9.486e-21
7.71628e-22
7.36288e-21
2.16701e-22
4.81511e-21
1.82622e-21
1.59839e-22
-1.97515e-21
6.73502e-22
-5.30242e-21
1.44774e-21
-8.16114e-21
2.47481e-21
-1.05816e-20
3.71418e-21
-1.25794e-20
5.14168e-21
-1.42086e-20
6.71851e-21
-1.55085e-20
8.41207e-21
-1.65042e-20
1.0193e-20
-1.72265e-20
1.20284e-20
-1.7701e-20
1.38932e-20
-1.79447e-20
1.57651e-20
-1.79767e-20
1.76224e-20
-1.78132e-20
1.94459e-20
-1.74691e-20
2.12171e-20
-1.69591e-20
2.2919e-20
-1.6296e-20
2.4537e-20
-1.54931e-20
2.60575e-20
-1.45622e-20
2.74682e-20
-1.35157e-20
2.87587e-20
-1.23644e-20
2.99191e-20
-1.11206e-20
3.09405e-20
-9.79522e-21
3.18153e-20
-8.39954e-21
3.25369e-20
-6.94359e-21
3.31002e-20
-5.43879e-21
3.35022e-20
-3.89463e-21
3.3742e-20
-2.32223e-21
3.38194e-20
-7.3273e-22
3.3734e-20
8.61537e-22
3.34856e-20
2.44792e-21
3.30737e-20
4.01365e-21
3.25002e-20
5.54824e-21
3.17687e-20
7.04171e-21
3.08848e-20
8.48418e-21
2.98553e-20
9.86567e-21
2.86885e-20
1.11757e-20
2.73929e-20
1.24032e-20
2.59784e-20
1.35373e-20
2.44562e-20
1.45668e-20
2.28391e-20
1.5481e-20
2.11403e-20
1.62678e-20
1.93744e-20
1.69152e-20
1.75569e-20
1.74101e-20
1.57054e-20
1.77404e-20
1.38393e-20
1.78921e-20
1.19804e-20
1.78512e-20
1.01531e-20
1.76024e-20
8.38326e-21
1.71241e-20
6.69792e-21
1.64e-20
5.12945e-21
1.54174e-20
3.70336e-21
1.41224e-20
2.46229e-21
1.24948e-20
1.44213e-21
1.05395e-20
6.39701e-22
8.14907e-21
1.56253e-22
5.30194e-21
1.98276e-21
1.59207e-22
-2.13126e-21
5.70068e-22
-5.71557e-21
1.23702e-21
-8.82963e-21
2.1188e-21
-1.14656e-20
3.19255e-21
-1.36582e-20
4.4293e-21
-1.54513e-20
5.79407e-21
-1.6881e-20
7.26209e-21
-1.79801e-20
8.80896e-21
-1.87791e-20
1.04052e-20
-1.9303e-20
1.20291e-20
-1.95742e-20
1.36598e-20
-1.96124e-20
1.5279e-20
-1.94359e-20
1.68689e-20
-1.9062e-20
1.84132e-20
-1.85061e-20
1.98976e-20
-1.7783e-20
2.13092e-20
-1.69071e-20
2.26355e-20
-1.58914e-20
2.38661e-20
-1.47489e-20
2.49917e-20
-1.34924e-20
2.60036e-20
-1.21347e-20
2.68943e-20
-1.06875e-20
2.76569e-20
-9.1633e-21
2.82859e-20
-7.57396e-21
2.8777e-20
-5.93137e-21
2.9128e-20
-4.24686e-21
2.93374e-20
-2.53216e-21
2.94044e-20
-7.9958e-22
2.93294e-20
9.38092e-22
2.91118e-20
2.66764e-21
2.87524e-20
4.37638e-21
2.82522e-20
6.05189e-21
2.76146e-20
7.68293e-21
2.68442e-20
9.25824e-21
2.5947e-20
1.07669e-20
2.49296e-20
1.21969e-20
2.37999e-20
1.35367e-20
2.25663e-20
1.47747e-20
2.12385e-20
1.58986e-20
1.98274e-20
1.68962e-20
1.83452e-20
1.77546e-20
1.68044e-20
1.84603e-20
1.52188e-20
1.9e-20
1.3604e-20
1.93592e-20
1.19772e-20
1.95232e-20
1.03586e-20
1.94751e-20
8.76956e-21
1.91966e-20
7.23226e-21
1.86717e-20
5.77115e-21
1.7876e-20
4.41451e-21
1.6775e-20
3.19104e-21
1.53594e-20
2.1143e-21
1.35959e-20
1.21423e-21
1.14101e-20
5.66503e-22
8.80128e-21
1.53699e-22
5.71608e-21
2.13646e-21
1.26205e-22
-2.26201e-21
4.73666e-22
-6.0679e-21
1.03487e-21
-9.39441e-21
1.77939e-21
-1.22147e-20
2.6869e-21
-1.45708e-20
3.72892e-21
-1.65004e-20
4.88231e-21
-1.8042e-20
6.12641e-21
-1.92294e-20
7.43628e-21
-2.00939e-20
8.79017e-21
-2.06618e-20
1.01696e-20
-2.0958e-20
1.15563e-20
-2.10023e-20
1.29334e-20
-2.08156e-20
1.42855e-20
-2.04166e-20
1.55994e-20
-1.98222e-20
1.68627e-20
-1.90482e-20
1.80637e-20
-1.81099e-20
1.91924e-20
-1.70216e-20
2.02395e-20
-1.57977e-20
2.11972e-20
-1.44517e-20
2.20581e-20
-1.29966e-20
2.28157e-20
-1.14461e-20
2.34642e-20
-9.81318e-21
2.39992e-20
-8.11075e-21
2.4417e-20
-6.35105e-21
2.47157e-20
-4.54686e-21
2.48938e-20
-2.71076e-21
2.49511e-20
-8.55791e-22
2.48867e-20
1.00424e-21
2.4701e-20
2.85599e-21
2.43946e-20
4.68565e-21
2.39689e-20
6.48067e-21
2.34263e-20
8.22844e-21
2.27711e-20
9.91675e-21
2.2008e-20
1.15332e-20
2.11425e-20
1.30656e-20
2.01809e-20
1.45014e-20
1.91311e-20
1.58276e-20
1.80011e-20
1.70317e-20
1.68002e-20
1.81001e-20
1.55384e-20
1.90191e-20
1.42268e-20
1.97746e-20
1.28774e-20
2.03517e-20
1.15039e-20
2.07349e-20
1.01212e-20
2.09078e-20
8.74619e-21
2.08532e-20
7.39828e-21
2.05518e-20
6.09619e-21
1.99802e-20
4.85952e-21
1.91154e-20
3.71439e-21
1.79383e-20
2.68001e-21
1.64069e-20
1.77748e-21
1.44832e-20
1.03582e-21
1.21589e-20
4.6289e-22
9.36746e-21
1.12804e-22
6.06138e-21
2.24921e-21
9.64969e-23
-2.35943e-21
3.83422e-22
-6.35987e-21
8.40849e-22
-9.85577e-21
1.44904e-21
-1.28268e-20
2.18751e-21
-1.53143e-20
3.03715e-21
-1.73551e-20
3.98136e-21
-1.89896e-20
5.00012e-21
-2.02512e-20
6.07338e-21
-2.11702e-20
7.18448e-21
-2.17752e-20
8.31677e-21
-2.20918e-20
9.45548e-21
-2.21418e-20
1.05866e-20
-2.19476e-20
1.16979e-20
-2.15286e-20
1.27777e-20
-2.09027e-20
1.38162e-20
-2.00869e-20
1.48034e-20
-1.90973e-20
1.57315e-20
-1.79497e-20
1.65925e-20
-1.66587e-20
1.73798e-20
-1.52389e-20
1.80875e-20
-1.37043e-20
1.87102e-20
-1.20695e-20
1.92432e-20
-1.03472e-20
1.96825e-20
-8.55167e-21
2.00256e-20
-6.69576e-21
2.02709e-20
-4.79321e-21
2.04176e-20
-2.85715e-21
2.0465e-20
-9.01742e-22
2.04124e-20
1.05905e-21
2.02596e-20
3.0109e-21
2.00071e-20
4.93993e-21
1.96564e-20
6.83255e-21
1.92101e-20
8.67581e-21
1.86712e-20
1.04567e-20
1.80435e-20
1.2162e-20
1.73314e-20
1.37786e-20
1.65407e-20
1.5293e-20
1.56772e-20
1.66921e-20
1.4748e-20
1.7962e-20
1.37603e-20
1.90886e-20
1.27227e-20
2.00576e-20
1.16442e-20
2.08537e-20
1.05351e-20
2.14612e-20
9.40643e-21
2.18637e-20
8.27078e-21
2.20442e-20
7.14274e-21
2.19833e-20
6.03789e-21
2.16591e-20
4.9714e-21
2.10516e-20
3.9613e-21
2.01366e-20
3.02535e-21
1.88776e-20
2.18451e-21
1.72503e-20
1.44958e-21
1.52336e-20
8.3388e-22
1.2761e-20
3.80769e-22
9.80694e-21
1.02933e-22
6.3435e-21
2.35225e-21
7.67549e-23
-2.43827e-21
2.98311e-22
-6.58333e-21
6.51104e-22
-1.0211e-20
1.12176e-21
-1.33002e-20
1.69443e-21
-1.58904e-20
2.35636e-21
-1.80198e-20
3.0915e-21
-1.97273e-20
3.88392e-21
-2.10461e-20
4.71961e-21
-2.20078e-20
5.58544e-21
-2.26422e-20
6.46879e-21
-2.29753e-20
7.35702e-21
-2.30302e-20
8.2394e-21
-2.28302e-20
9.10674e-21
-2.23961e-20
9.94999e-21
-2.17459e-20
1.07606e-20
-2.08975e-20
1.15314e-20
-1.98679e-20
1.22558e-20
-1.86739e-20
1.29281e-20
-1.73306e-20
1.35429e-20
-1.58534e-20
1.40955e-20
-1.42569e-20
1.45812e-20
-1.25556e-20
1.4997e-20
-1.07641e-20
1.53401e-20
-8.89622e-21
1.56083e-20
-6.96559e-21
1.58003e-20
-4.98576e-21
1.59151e-20
-2.97102e-21
1.59516e-20
-9.36421e-22
1.59096e-20
1.10286e-21
1.57896e-20
3.13231e-21
1.5592e-20
5.13837e-21
1.5318e-20
7.10729e-21
1.49691e-20
9.02529e-21
1.45479e-20
1.08784e-20
1.40573e-20
1.26529e-20
1.35011e-20
1.43351e-20
1.28835e-20
1.59112e-20
1.22091e-20
1.73671e-20
1.14832e-20
1.86884e-20
1.07118e-20
1.98606e-20
9.90132e-21
2.08684e-20
9.05903e-21
2.16962e-20
8.19291e-21
2.23274e-20
7.31216e-21
2.27447e-20
6.42656e-21
2.29299e-20
5.54681e-21
2.28637e-20
4.68671e-21
2.25239e-20
3.85826e-21
2.18868e-20
3.0718e-21
2.09222e-20
2.34741e-21
1.96111e-20
1.69743e-21
1.79197e-20
1.12326e-21
1.57953e-20
6.50762e-22
1.32231e-20
2.97979e-22
1.01672e-20
7.46972e-23
6.55688e-21
2.42657e-21
5.46495e-23
-2.49251e-21
2.11967e-22
-6.74321e-21
4.64759e-22
-1.04643e-20
8.01348e-22
-1.36383e-20
1.21135e-21
-1.63022e-20
1.68436e-21
-1.84949e-20
2.20891e-21
-2.02543e-20
2.77489e-21
-2.16142e-20
3.37302e-21
-2.26072e-20
3.99265e-21
-2.32624e-20
4.62475e-21
-2.36077e-20
5.26036e-21
-2.3666e-20
5.8925e-21
-2.34624e-20
6.51382e-21
-2.30176e-20
7.11785e-21
-2.23498e-20
7.69838e-21
-2.1478e-20
8.25049e-21
-2.04202e-20
8.76921e-21
-1.91927e-20
9.25068e-21
-1.7812e-20
9.69076e-21
-1.62933e-20
1.00863e-20
-1.46525e-20
1.0434e-20
-1.2904e-20
1.07321e-20
-1.10628e-20
1.0978e-20
-9.14259e-21
1.11705e-20
-7.15771e-21
1.13081e-20
-5.12227e-21
1.13901e-20
-3.05184e-21
1.14157e-20
-9.61419e-22
1.13851e-20
1.13391e-21
1.12981e-20
3.21953e-21
1.11558e-20
5.28128e-21
1.09589e-20
7.30491e-21
1.07087e-20
9.27615e-21
1.04067e-20
1.11809e-20
1.00549e-20
1.30052e-20
9.65615e-21
1.47344e-20
9.2133e-21
1.63547e-20
8.7298e-21
1.78512e-20
8.20946e-21
1.92093e-20
7.65653e-21
2.0414e-20
7.0757e-21
2.14496e-20
6.47211e-21
2.23e-20
5.85154e-21
2.29484e-20
5.22048e-21
2.33757e-20
4.58655e-21
2.35641e-20
3.95763e-21
2.3495e-20
3.34365e-21
2.31408e-20
2.75138e-21
2.24805e-20
2.19278e-21
2.14914e-20
1.67749e-21
2.01355e-20
1.21168e-21
1.83779e-20
8.11866e-22
1.62066e-20
4.7004e-22
1.3566e-20
2.04842e-22
1.0404e-20
5.00811e-23
6.71569e-21
2.47667e-21
3.20901e-23
-2.52657e-21
1.28657e-22
-6.83886e-21
2.82146e-22
-1.06176e-20
4.85671e-22
-1.38418e-20
7.32858e-22
-1.655e-20
1.01674e-21
-1.87804e-20
1.33133e-21
-2.05706e-20
1.67121e-21
-2.19553e-20
2.03099e-21
-2.29676e-20
2.40475e-21
-2.3636e-20
2.78339e-21
-2.39861e-20
3.16485e-21
-2.40475e-20
3.54589e-21
-2.38434e-20
3.92005e-21
-2.33913e-20
4.2828e-21
-2.27123e-20
4.63148e-21
-2.18266e-20
4.96299e-21
-2.07519e-20
5.2747e-21
-1.95045e-20
5.56387e-21
-1.81011e-20
5.82821e-21
-1.65577e-20
6.06535e-21
-1.48898e-20
6.27422e-21
-1.31124e-20
6.45307e-21
-1.12403e-20
6.60144e-21
-9.28833e-21
6.71789e-21
-7.27101e-21
6.80124e-21
-5.20312e-21
6.8499e-21
-3.09993e-21
6.86401e-21
-9.76437e-22
6.84401e-21
1.1522e-21
6.79097e-21
3.27151e-21
6.70509e-21
5.36681e-21
6.58644e-21
7.42365e-21
6.43532e-21
9.42737e-21
6.253e-21
1.13634e-20
6.0409e-21
1.32175e-20
5.8007e-21
1.49751e-20
5.53394e-21
1.66218e-20
5.24275e-21
1.81427e-20
4.92943e-21
1.95228e-20
4.59673e-21
2.07468e-20
4.2474e-21
2.17989e-20
3.88473e-21
2.2663e-20
3.51119e-21
2.33218e-20
3.13081e-21
2.3756e-20
2.74962e-21
2.39454e-20
2.37335e-21
2.38712e-20
2.00471e-21
2.35126e-20
1.65188e-21
2.2841e-20
1.3173e-21
2.18241e-20
1.01148e-21
2.04426e-20
7.41666e-22
1.86732e-20
4.90212e-22
1.64477e-20
2.81358e-22
1.3749e-20
1.39278e-22
1.05615e-20
3.79374e-23
6.80105e-21
2.51384e-21
1.17806e-23
-2.53709e-21
4.56879e-23
-6.87388e-21
1.00985e-22
-1.06716e-20
1.72559e-22
-1.39115e-20
2.56479e-22
-1.66341e-20
3.51939e-22
-1.88765e-20
4.56992e-22
-2.06765e-20
5.70195e-22
-2.2069e-20
6.89281e-22
-2.30862e-20
8.12954e-22
-2.3759e-20
9.41413e-22
-2.41142e-20
1.07489e-21
-2.41804e-20
1.20289e-21
-2.39707e-20
1.32511e-21
-2.35129e-20
1.445e-21
-2.28317e-20
1.56097e-21
-2.19423e-20
1.67129e-21
-2.08619e-20
1.77494e-21
-1.96078e-20
1.8709e-21
-1.81969e-20
1.95849e-21
-1.66451e-20
2.03703e-21
-1.49675e-20
2.10624e-21
-1.318e-20
2.1662e-21
-1.12973e-20
2.21676e-21
-9.33447e-21
2.25647e-21
-7.30638e-21
2.28434e-21
-5.22842e-21
2.29957e-21
-3.11527e-21
2.30257e-21
-9.81622e-22
2.29408e-21
1.1579e-21
2.275e-21
3.28874e-21
2.24532e-21
5.39568e-21
2.20482e-21
7.46387e-21
2.15357e-21
9.47844e-21
2.09169e-21
1.14251e-20
2.02009e-21
1.32891e-20
1.93889e-21
1.50564e-20
1.84905e-21
1.67117e-20
1.75099e-21
1.82407e-20
1.64564e-21
1.96278e-20
1.53399e-21
2.08581e-20
1.41727e-21
2.19155e-20
1.29681e-21
2.2783e-20
1.17458e-21
2.34435e-20
1.04656e-21
2.38832e-20
9.12929e-22
2.4078e-20
7.86717e-22
2.39988e-20
6.6768e-22
2.36332e-20
5.53587e-22
2.29533e-20
4.4743e-22
2.19395e-20
3.49752e-22
2.05529e-20
2.58781e-22
1.87488e-20
1.8682e-22
1.65247e-20
1.13995e-22
1.38329e-20
3.46979e-23
1.05988e-20
2.31268e-24
6.83647e-21
2.51613e-21
-8.53792e-24
-2.53024e-21
-3.42936e-23
-6.84482e-21
-7.77243e-23
-1.06241e-20
-1.40167e-22
-1.38474e-20
-2.18445e-22
-1.65545e-20
-3.11217e-22
-1.87838e-20
-4.15438e-22
-2.05726e-20
-5.27455e-22
-2.19566e-20
-6.44872e-22
-2.29679e-20
-7.67148e-22
-2.36359e-20
-8.94548e-22
-2.39858e-20
-1.02713e-21
-2.40469e-20
-1.15441e-21
-2.38424e-20
-1.27614e-21
-2.33903e-20
-1.39589e-21
-2.27111e-20
-1.51192e-21
-2.18255e-20
-1.62261e-21
-2.07504e-20
-1.727e-21
-1.9503e-20
-1.82407e-21
-1.80992e-20
-1.9133e-21
-1.65552e-20
-1.99343e-21
-1.48865e-20
-2.06384e-21
-1.31082e-20
-2.12323e-21
-1.12348e-20
-2.17212e-21
-9.28219e-21
-2.21003e-21
-7.26511e-21
-2.2381e-21
-5.19895e-21
-2.25592e-21
-3.0977e-21
-2.26351e-21
-9.75964e-22
-2.25944e-21
1.15254e-21
-2.24409e-21
3.27227e-21
-2.21714e-21
5.36853e-21
-2.1795e-21
7.42572e-21
-2.13083e-21
9.42975e-21
-2.07212e-21
1.13661e-20
-2.00314e-21
1.32204e-20
-1.92503e-21
1.49781e-20
-1.83778e-21
1.66245e-20
-1.7426e-21
1.81449e-20
-1.6396e-21
1.95247e-20
-1.53031e-21
2.07482e-20
-1.41516e-21
2.17999e-20
-1.29639e-21
2.26633e-20
-1.17539e-21
2.33217e-20
-1.04876e-21
2.37552e-20
-9.15594e-22
2.39439e-20
-7.87727e-22
2.38687e-20
-6.62529e-22
2.35096e-20
-5.39725e-22
2.28381e-20
-4.2362e-22
2.18197e-20
-3.10853e-22
2.04365e-20
-2.03959e-22
1.867e-20
-1.35468e-22
1.64459e-20
-8.17768e-23
1.37401e-20
-1.8996e-23
1.05583e-20
-3.47516e-25
6.79715e-21
2.51482e-21
-3.20761e-23
-2.49574e-21
-1.16262e-22
-6.7562e-21
-2.58351e-22
-1.04781e-20
-4.52332e-22
-1.36487e-20
-6.94136e-22
-1.63107e-20
-9.76007e-22
-1.8501e-20
-1.29022e-21
-2.02577e-20
-1.6296e-21
-2.16162e-20
-1.98847e-21
-2.26078e-20
-2.36083e-21
-2.32618e-20
-2.73827e-21
-2.36067e-20
-3.11916e-21
-2.36642e-20
-3.49969e-21
-2.34603e-20
-3.87321e-21
-2.30151e-20
-4.23565e-21
-2.23472e-20
-4.58423e-21
-2.14753e-20
-4.91618e-21
-2.04172e-20
-5.22823e-21
-1.91894e-20
-5.51819e-21
-1.78082e-20
-5.78317e-21
-1.6289e-20
-6.02175e-21
-1.46469e-20
-6.23135e-21
-1.28966e-20
-6.41123e-21
-1.10534e-20
-6.55934e-21
-9.13209e-21
-6.6757e-21
-7.14773e-21
-6.75913e-21
-5.1145e-21
-6.81001e-21
-3.04674e-21
-6.827e-21
-9.58329e-22
-6.81081e-21
1.13621e-21
-6.76032e-21
3.2222e-21
-6.67706e-21
5.28482e-21
-6.56057e-21
7.30952e-21
-6.4128e-21
9.28167e-21
-6.23329e-21
1.1187e-20
-6.02464e-21
1.30114e-20
-5.78688e-21
1.47404e-20
-5.52325e-21
1.63602e-20
-5.23446e-21
1.7856e-20
-4.92388e-21
1.92132e-20
-4.59297e-21
2.04168e-20
-4.24576e-21
2.14514e-20
-3.88434e-21
2.23008e-20
-3.51253e-21
2.29479e-20
-3.13331e-21
2.33737e-20
-2.75312e-21
2.35607e-20
-2.37472e-21
2.34908e-20
-2.00035e-21
2.31349e-20
-1.63856e-21
2.24713e-20
-1.2931e-21
2.14843e-20
-9.73743e-22
2.01312e-20
-6.91696e-22
1.83635e-20
-4.35646e-22
1.61921e-20
-2.41573e-22
1.35646e-20
-1.33808e-22
1.03955e-20
-4.17714e-23
6.70897e-21
2.47297e-21
-4.9159e-23
-2.44585e-21
-1.97143e-22
-6.60072e-21
-4.38044e-22
-1.02278e-20
-7.67703e-22
-1.33139e-20
-1.17335e-21
-1.59011e-20
-1.64442e-21
-1.80274e-20
-2.16915e-21
-1.97311e-20
-2.73588e-21
-2.10475e-20
-3.33332e-21
-2.20074e-20
-3.95222e-21
-2.264e-20
-4.58349e-21
-2.29723e-20
-5.21844e-21
-2.30264e-20
-5.8499e-21
-2.28258e-20
-6.4712e-21
-2.23912e-20
-7.07461e-21
-2.17407e-20
-7.65526e-21
-2.08919e-20
-8.20705e-21
-1.98622e-20
-8.72642e-21
-1.86676e-20
-9.20795e-21
-1.73239e-20
-9.649e-21
-1.58459e-20
-1.00448e-20
-1.42486e-20
-1.03935e-20
-1.25462e-20
-1.06919e-20
-1.07535e-20
-1.09391e-20
-8.88428e-21
-1.11325e-20
-6.95359e-21
-1.12717e-20
-4.97479e-21
-1.13546e-20
-2.96259e-21
-1.13817e-20
-9.29881e-22
-1.13524e-20
1.10843e-21
-1.12681e-20
3.13878e-21
-1.11284e-20
5.14567e-21
-1.09346e-20
7.11574e-21
-1.0687e-20
9.03406e-21
-1.0388e-20
1.08876e-20
-1.0039e-20
1.26619e-20
-9.64342e-21
1.43441e-20
-9.20329e-21
1.59191e-20
-8.72251e-21
1.73739e-20
-8.20428e-21
1.86934e-20
-7.65345e-21
1.98641e-20
-7.0743e-21
2.08699e-20
-6.4724e-21
2.16961e-20
-5.85337e-21
2.23252e-20
-5.22385e-21
2.27407e-20
-4.59048e-21
2.29239e-20
-3.96006e-21
2.28548e-20
-3.34024e-21
2.25133e-20
-2.73849e-21
2.18784e-20
-2.17133e-21
2.09078e-20
-1.64012e-21
1.95893e-20
-1.15528e-21
1.79129e-20
-7.64532e-22
1.57874e-20
-4.47542e-22
1.31939e-20
-1.78137e-22
1.0154e-20
-3.99954e-23
6.5429e-21
2.43151e-21
-7.53152e-23
-2.36663e-21
-2.80816e-22
-6.38165e-21
-6.23427e-22
-9.87719e-21
-1.08609e-21
-1.28422e-20
-1.65721e-21
-1.53241e-20
-2.31902e-21
-1.73623e-20
-3.05493e-21
-1.89924e-20
-3.84842e-21
-2.02508e-20
-4.68485e-21
-2.11676e-20
-5.55038e-21
-2.17708e-20
-6.43305e-21
-2.20858e-20
-7.32059e-21
-2.21352e-20
-8.20296e-21
-2.194e-20
-9.06998e-21
-2.15208e-20
-9.91285e-21
-2.08943e-20
-1.0723e-20
-2.0078e-20
-1.14937e-20
-1.90878e-20
-1.22181e-20
-1.794e-20
-1.28904e-20
-1.66484e-20
-1.35053e-20
-1.52284e-20
-1.40577e-20
-1.36931e-20
-1.45445e-20
-1.20578e-20
-1.49613e-20
-1.0335e-20
-1.53062e-20
-8.53946e-21
-1.55757e-20
-6.68345e-21
-1.57691e-20
-4.78141e-21
-1.5884e-20
-2.84558e-21
-1.59217e-20
-8.90939e-22
-1.58803e-20
1.06952e-21
-1.57621e-20
3.02094e-21
-1.55657e-20
4.9507e-21
-1.52946e-20
6.84394e-21
-1.4948e-20
8.68827e-21
-1.45306e-20
1.04692e-20
-1.40425e-20
1.21745e-20
-1.34901e-20
1.37901e-20
-1.28746e-20
1.53033e-20
-1.22034e-20
1.67003e-20
-1.1479e-20
1.7968e-20
-1.07101e-20
1.90918e-20
-9.90061e-21
2.00581e-20
-9.06066e-21
2.08512e-20
-8.19542e-21
2.14562e-20
-7.3166e-21
2.18557e-20
-6.43151e-21
2.20333e-20
-5.55076e-21
2.19716e-20
-4.68356e-21
2.16456e-20
-3.84845e-21
2.10301e-20
-3.04995e-21
2.01194e-20
-2.31227e-21
1.88697e-20
-1.65697e-21
1.72179e-20
-1.06782e-21
1.51969e-20
-6.02818e-22
1.27561e-20
-3.05802e-22
9.78508e-21
-9.12181e-23
6.3272e-21
2.33992e-21
-9.23515e-23
-2.26962e-21
-3.6623e-22
-6.09722e-21
-8.08606e-22
-9.41857e-21
-1.41055e-21
-1.22307e-20
-2.14951e-21
-1.45797e-20
-3.00245e-21
-1.65048e-20
-3.95006e-21
-1.80423e-20
-4.97032e-21
-1.92276e-20
-6.04528e-21
-2.00902e-20
-7.15601e-21
-2.06562e-20
-8.28907e-21
-2.09505e-20
-9.42673e-21
-2.09942e-20
-1.05585e-20
-2.08071e-20
-1.16682e-20
-2.04074e-20
-1.27489e-20
-1.98121e-20
-1.37854e-20
-1.90373e-20
-1.47741e-20
-1.80985e-20
-1.57e-20
-1.70097e-20
-1.65629e-20
-1.57855e-20
-1.73478e-20
-1.44389e-20
-1.80578e-20
-1.29841e-20
-1.86781e-20
-1.14336e-20
-1.92146e-20
-9.80076e-21
-1.96532e-20
-8.09795e-21
-2.00014e-20
-6.33822e-21
-2.02456e-20
-4.53369e-21
-2.03957e-20
-2.69773e-21
-2.04394e-20
-8.42919e-22
-2.03892e-20
1.01713e-21
-2.02333e-20
2.86932e-21
-1.99854e-20
4.70007e-21
-1.96337e-20
6.49656e-21
-1.91933e-20
8.24567e-21
-1.8654e-20
9.93476e-21
-1.80326e-20
1.15509e-20
-1.73206e-20
1.30818e-20
-1.6536e-20
1.45156e-20
-1.56722e-20
1.58391e-20
-1.47479e-20
1.70394e-20
-1.3759e-20
1.81036e-20
-1.27255e-20
1.90185e-20
-1.16459e-20
1.97698e-20
-1.05405e-20
2.03434e-20
-9.41111e-21
2.07237e-20
-8.27762e-21
2.08948e-20
-7.14619e-21
2.08358e-20
-6.03884e-21
2.05313e-20
-4.96013e-21
1.99653e-20
-3.94246e-21
1.90923e-20
-2.99632e-21
1.78958e-20
-2.12744e-21
1.63931e-20
-1.41088e-21
1.44705e-20
-8.25466e-22
1.20995e-20
-3.42056e-22
9.33473e-21
-8.20419e-23
6.03243e-21
2.25597e-21
-1.19473e-22
-2.14602e-21
-4.5238e-22
-5.74568e-21
-1.00351e-21
-8.85599e-21
-1.74338e-21
-1.14833e-20
-2.65013e-21
-1.36674e-20
-3.69775e-21
-1.5456e-20
-4.85687e-21
-1.68822e-20
-6.10471e-21
-1.79798e-20
-7.41582e-21
-1.87773e-20
-8.77219e-21
-1.93002e-20
-1.0151e-20
-1.95702e-20
-1.15386e-20
-1.96078e-20
-1.29139e-20
-1.94303e-20
-1.42672e-20
-1.9056e-20
-1.55789e-20
-1.8499e-20
-1.68431e-20
-1.77757e-20
-1.80417e-20
-1.68983e-20
-1.91725e-20
-1.58823e-20
-2.02172e-20
-1.4739e-20
-2.11771e-20
-1.34827e-20
-2.20353e-20
-1.21242e-20
-2.27954e-20
-1.06775e-20
-2.34421e-20
-9.15292e-21
-2.39807e-20
-7.56392e-21
-2.43973e-20
-5.92031e-21
-2.46995e-20
-4.23585e-21
-2.48753e-20
-2.51978e-21
-2.49345e-20
-7.86843e-22
-2.48669e-20
9.52631e-22
-2.46832e-20
2.68359e-21
-2.43746e-20
4.39562e-21
-2.39528e-20
6.07377e-21
-2.34103e-20
7.70804e-21
-2.27602e-20
9.28392e-21
-2.19978e-20
1.07927e-20
-2.11373e-20
1.22208e-20
-2.01769e-20
1.35587e-20
-1.91315e-20
1.4792e-20
-1.80016e-20
1.59121e-20
-1.68036e-20
1.69035e-20
-1.55414e-20
1.77571e-20
-1.4232e-20
1.84577e-20
-1.28826e-20
1.89944e-20
-1.15108e-20
1.93499e-20
-1.0128e-20
1.95107e-20
-8.75247e-21
1.9461e-20
-7.39694e-21
1.91834e-20
-6.0885e-21
1.86459e-20
-4.84466e-21
1.78499e-20
-3.68202e-21
1.67707e-20
-2.65377e-21
1.53189e-20
-1.73021e-21
1.35317e-20
-9.78439e-22
1.14008e-20
-4.83758e-22
8.76325e-21
-1.42441e-22
5.69044e-21
2.11328e-21
-1.42198e-22
-1.9994e-21
-5.43899e-22
-5.32901e-21
-1.20358e-21
-8.18967e-21
-2.08683e-21
-1.05945e-20
-3.16637e-21
-1.25888e-20
-4.40817e-21
-1.42177e-20
-5.77919e-21
-1.55137e-20
-7.25312e-21
-1.65095e-20
-8.80008e-21
-1.72329e-20
-1.03982e-20
-1.77057e-20
-1.20217e-20
-1.79486e-20
-1.36545e-20
-1.798e-20
-1.52711e-20
-1.78162e-20
-1.68622e-20
-1.74716e-20
-1.84031e-20
-1.69607e-20
-1.98903e-20
-1.62972e-20
-2.12975e-20
-1.54939e-20
-2.26275e-20
-1.45625e-20
-2.38531e-20
-1.35151e-20
-2.49836e-20
-1.23634e-20
-2.59892e-20
-1.11191e-20
-2.68857e-20
-9.79325e-21
-2.76416e-20
-8.39643e-21
-2.82783e-20
-6.93983e-21
-2.87628e-20
-5.43376e-21
-2.91219e-20
-3.88848e-21
-2.93224e-20
-2.31406e-21
-2.93966e-20
-7.22488e-22
-2.93101e-20
8.74897e-22
-2.90996e-20
2.46497e-21
-2.87299e-20
4.03606e-21
-2.82404e-20
5.57591e-21
-2.75963e-20
7.07399e-21
-2.68398e-20
8.51869e-21
-2.59366e-20
9.9006e-21
-2.49326e-20
1.12086e-20
-2.37964e-20
1.24333e-20
-2.25748e-20
1.35647e-20
-2.12402e-20
1.45901e-20
-1.98391e-20
1.54986e-20
-1.8348e-20
1.628e-20
-1.68147e-20
1.69233e-20
-1.52212e-20
1.74151e-20
-1.36144e-20
1.77433e-20
-1.19815e-20
1.78936e-20
-1.03671e-20
1.78498e-20
-8.7698e-21
1.75944e-20
-7.23089e-21
1.71208e-20
-5.75352e-21
1.63934e-20
-4.39569e-21
1.53779e-20
-3.14705e-21
1.41072e-20
-2.08377e-21
1.25007e-20
-1.22699e-21
1.04713e-20
-5.18976e-22
8.1072e-21
-1.21527e-22
5.26848e-21
1.99063e-21
-1.61174e-22
-1.83118e-21
-6.42669e-22
-4.84359e-21
-1.41108e-21
-7.41497e-21
-2.44433e-21
-9.56338e-21
-3.69746e-21
-1.13404e-20
-5.13396e-21
-1.27829e-20
-6.72026e-21
-1.39324e-20
-8.4165e-21
-1.48141e-20
-1.01999e-20
-1.54538e-20
-1.20335e-20
-1.58707e-20
-1.39025e-20
-1.60856e-20
-1.57703e-20
-1.611e-20
-1.76315e-20
-1.5963e-20
-1.94486e-20
-1.56521e-20
-2.12245e-20
-1.51972e-20
-2.29185e-20
-1.4601e-20
-2.45435e-20
-1.38844e-20
-2.60549e-20
-1.30475e-20