/*--------------------------------*- C++ -*----------------------------------*\
| =========                 |                                                 |
| \\      /  F ield         | OpenFOAM: The Open Source CFD Toolbox           |
|  \\    /   O peration     | Version:  5.0                                   |
|   \\  /    A nd           | Web:      www.OpenFOAM.org                      |
|    \\/     M anipulation  |                                                 |
\*---------------------------------------------------------------------------*/
FoamFile
{
    version     2.0;
    format      ascii;
    class       volScalarField;
    location    "0.4";
    object      p;
}
// * * * * * * * * * * * * * * * * * * * * * * * * * * * * * * * * * * * * * //

dimensions      [0 2 -2 0 0 0 0];

internalField   nonuniform List<scalar> 
50
(
5.85584e-12
-2.5337e-10
-2.60259e-10
-5.6193e-10
-5.4541e-10
6.00081e-12
-2.53529e-10
-2.60053e-10
-5.61322e-10
-5.45192e-10
6.37107e-12
-2.53931e-10
-2.59587e-10
-5.62269e-10
-5.47187e-10
6.65706e-12
-2.54234e-10
-2.59259e-10
-5.64007e-10
-5.49655e-10
6.78987e-12
-2.54366e-10
-2.59134e-10
-5.6519e-10
-5.51105e-10
6.78899e-12
-2.54346e-10
-2.59173e-10
-5.65184e-10
-5.51022e-10
6.65432e-12
-2.54179e-10
-2.59373e-10
-5.64019e-10
-5.4944e-10
6.36729e-12
-2.53848e-10
-2.59764e-10
-5.62372e-10
-5.46933e-10
5.99631e-12
-2.53433e-10
-2.60275e-10
-5.61629e-10
-5.45043e-10
5.85078e-12
-2.53271e-10
-2.6051e-10
-5.62513e-10
-5.4547e-10
)
;

boundaryField
{
    top
    {
        type            zeroGradient;
    }
    bottom
    {
        type            zeroGradient;
    }
    inlet
    {
        type            fixedValue;
        value           nonuniform 0();
    }
    outlet
    {
        type            fixedValue;
        value           uniform 0;
    }
    frontAndBack
    {
        type            empty;
    }
    procBoundary1to0
    {
        type            processor;
        value           nonuniform List<scalar> 10(3.47513e-11 3.45893e-11 3.41922e-11 3.387e-11 3.36954e-11 3.36519e-11 3.3746e-11 3.40005e-11 3.43504e-11 3.44844e-11);
    }
}


// ************************************************************************* //
