/*--------------------------------*- C++ -*----------------------------------*\
| =========                 |                                                 |
| \\      /  F ield         | OpenFOAM: The Open Source CFD Toolbox           |
|  \\    /   O peration     | Version:  5.0                                   |
|   \\  /    A nd           | Web:      www.OpenFOAM.org                      |
|    \\/     M anipulation  |                                                 |
\*---------------------------------------------------------------------------*/
FoamFile
{
    version     2.0;
    format      ascii;
    class       volVectorField;
    location    "0.4";
    object      U;
}
// * * * * * * * * * * * * * * * * * * * * * * * * * * * * * * * * * * * * * //

dimensions      [0 1 -1 0 0 0 0];

internalField   nonuniform List<vector> 
50
(
(0.005 -2.66816e-14 4.00489e-34)
(0.005 2.92177e-14 1.111e-34)
(0.005 -3.327e-14 -1.19115e-34)
(0.005 9.73487e-14 -5.63363e-34)
(0.005 1.85107e-13 -9.20428e-34)
(0.015 -7.30939e-14 2.32299e-34)
(0.015 7.97011e-14 -5.73843e-34)
(0.015 -8.95424e-14 1.31645e-33)
(0.015 2.90904e-13 3.45996e-34)
(0.015 5.28662e-13 1.18346e-33)
(0.025 -8.9865e-14 -3.76538e-34)
(0.025 9.787e-14 9.93283e-34)
(0.025 -1.08347e-13 -1.30918e-33)
(0.025 4.15747e-13 -2.74576e-33)
(0.025 7.06853e-13 6.09617e-33)
(0.035 -7.03829e-14 1.61007e-34)
(0.035 7.6023e-14 7.17012e-34)
(0.035 -8.3559e-14 -4.63811e-34)
(0.035 3.57938e-13 -2.97026e-34)
(0.035 5.8525e-13 4.02557e-33)
(0.045 -2.59585e-14 5.89277e-34)
(0.045 2.69909e-14 2.71995e-34)
(0.045 -3.12668e-14 8.74807e-35)
(0.045 1.01401e-13 0)
(0.045 1.85611e-13 0)
(0.055 2.58673e-14 9.81338e-46)
(0.055 -2.98307e-14 3.82679e-34)
(0.055 2.89346e-14 -4.89721e-34)
(0.055 -2.1642e-13 0)
(0.055 -2.97734e-13 0)
(0.065 7.02975e-14 1.36833e-34)
(0.065 -7.84084e-14 7.45741e-34)
(0.065 8.17507e-14 2.93153e-35)
(0.065 -4.52029e-13 3.47045e-33)
(0.065 -6.76821e-13 0)
(0.075 8.98833e-14 1.34607e-33)
(0.075 -9.91356e-14 -1.30704e-33)
(0.075 1.07359e-13 3.08342e-33)
(0.075 -4.74733e-13 2.73803e-33)
(0.075 -7.64119e-13 -1.50917e-33)
(0.085 7.30876e-14 -5.28304e-34)
(0.085 -8.04052e-14 -5.90246e-34)
(0.085 8.93499e-14 -7.62405e-34)
(0.085 -3.16136e-13 -2.91269e-34)
(0.085 -5.53258e-13 -3.00801e-33)
(0.095 2.67126e-14 1.32562e-34)
(0.095 -2.91905e-14 -3.70242e-34)
(0.095 3.29945e-14 -3.2594e-34)
(0.095 -1.04002e-13 5.94144e-34)
(0.095 -1.90816e-13 -1.84527e-33)
)
;

boundaryField
{
    top
    {
        type            fixedValue;
        value           uniform (0.1 0 0);
    }
    bottom
    {
        type            fixedValue;
        value           uniform (0 0 0);
    }
    inlet
    {
        type            zeroGradient;
    }
    outlet
    {
        type            zeroGradient;
    }
    frontAndBack
    {
        type            empty;
    }
    procBoundary1to0
    {
        type            processor;
        value           nonuniform List<vector> 10((0.005 2.64801e-14 7.50856e-35) (0.015 7.3243e-14 -2.95042e-34) (0.025 8.98725e-14 -5.90215e-34) (0.035 7.04231e-14 1.09847e-33) (0.045 2.59168e-14 8.13463e-34) (0.055 -2.60618e-14 -2.9525e-34) (0.065 -7.04862e-14 3.56518e-34) (0.075 -9.02268e-14 8.85742e-34) (0.085 -7.32065e-14 4.95014e-34) (0.095 -2.69241e-14 6.21059e-35));
    }
}


// ************************************************************************* //
