/*--------------------------------*- C++ -*----------------------------------*\
| =========                 |                                                 |
| \\      /  F ield         | OpenFOAM: The Open Source CFD Toolbox           |
|  \\    /   O peration     | Version:  5.0                                   |
|   \\  /    A nd           | Web:      www.OpenFOAM.org                      |
|    \\/     M anipulation  |                                                 |
\*---------------------------------------------------------------------------*/
FoamFile
{
    version     2.0;
    format      ascii;
    class       volScalarField;
    location    "0.2";
    object      p;
}
// * * * * * * * * * * * * * * * * * * * * * * * * * * * * * * * * * * * * * //

dimensions      [0 2 -2 0 0 0 0];

internalField   nonuniform List<scalar> 
50
(
3.97699e-08
4.27315e-08
2.10876e-08
2.00292e-08
3.56856e-09
3.97438e-08
4.26726e-08
2.10722e-08
2.00448e-08
3.55394e-09
3.98788e-08
4.27309e-08
2.10379e-08
2.00746e-08
3.52806e-09
4.00642e-08
4.28623e-08
2.10114e-08
2.00985e-08
3.50797e-09
4.01743e-08
4.29515e-08
2.09988e-08
2.01112e-08
3.49667e-09
4.0184e-08
4.29638e-08
2.09966e-08
2.01151e-08
3.4932e-09
4.00741e-08
4.2881e-08
2.10065e-08
2.01086e-08
3.49759e-09
3.9899e-08
4.27637e-08
2.10299e-08
2.00919e-08
3.51127e-09
3.97523e-08
4.26973e-08
2.10635e-08
2.00683e-08
3.5309e-09
3.97706e-08
4.27501e-08
2.10785e-08
2.00599e-08
3.53971e-09
)
;

boundaryField
{
    top
    {
        type            zeroGradient;
    }
    bottom
    {
        type            zeroGradient;
    }
    inlet
    {
        type            fixedValue;
        value           uniform 0;
    }
    outlet
    {
        type            fixedValue;
        value           nonuniform 0();
    }
    frontAndBack
    {
        type            empty;
    }
    procBoundary0to1
    {
        type            processor;
        value           nonuniform List<scalar> 10(-5.85177e-10 -5.76765e-10 -5.56333e-10 -5.41906e-10 -5.35968e-10 -5.38499e-10 -5.4854e-10 -5.68228e-10 -5.93704e-10 -6.08551e-10);
    }
}


// ************************************************************************* //
