/*--------------------------------*- C++ -*----------------------------------*\
| =========                 |                                                 |
| \\      /  F ield         | OpenFOAM: The Open Source CFD Toolbox           |
|  \\    /   O peration     | Version:  5.0                                   |
|   \\  /    A nd           | Web:      www.OpenFOAM.org                      |
|    \\/     M anipulation  |                                                 |
\*---------------------------------------------------------------------------*/
FoamFile
{
    version     2.0;
    format      ascii;
    class       surfaceScalarField;
    location    "0.2";
    object      phi;
}
// * * * * * * * * * * * * * * * * * * * * * * * * * * * * * * * * * * * * * //

dimensions      [0 3 -1 0 0 0 0];

internalField   nonuniform List<scalar> 
85
(
4.99967e-07
-2.42217e-14
4.99967e-07
-1.34513e-14
4.99967e-07
4.26041e-15
4.99967e-07
-3.07255e-15
2.37305e-15
1.49991e-06
-4.83516e-14
1.49991e-06
-2.97305e-14
1.49991e-06
7.33657e-15
1.49991e-06
-5.08953e-15
3.87959e-15
2.49985e-06
-5.27765e-14
2.49985e-06
-3.5279e-14
2.49985e-06
6.91716e-15
2.49985e-06
-4.41418e-15
3.28363e-15
3.49982e-06
-3.46809e-14
3.49982e-06
-2.43426e-14
3.49982e-06
4.13744e-15
3.49982e-06
-1.93146e-15
1.4395e-15
4.4998e-06
-3.64719e-15
4.4998e-06
-3.39151e-15
4.4998e-06
2.73501e-16
4.4998e-06
1.21638e-15
-9.01768e-16
5.4998e-06
2.88406e-14
5.4998e-06
1.89064e-14
5.4998e-06
-3.70392e-15
5.4998e-06
4.21642e-15
-3.07689e-15
6.49982e-06
4.78562e-14
6.49982e-06
3.07165e-14
6.49982e-06
-6.55502e-15
6.49982e-06
6.03356e-15
-4.48719e-15
7.49985e-06
4.61262e-14
7.49985e-06
2.76754e-14
7.49985e-06
-7.18171e-15
7.49985e-06
6.0159e-15
-4.53543e-15
8.49991e-06
2.33774e-14
8.49991e-06
1.26822e-14
8.49991e-06
-4.20451e-15
8.49991e-06
3.33064e-15
-2.56929e-15
9.49997e-06
9.49997e-06
9.49997e-06
9.49997e-06
)
;

boundaryField
{
    top
    {
        type            calculated;
        value           uniform 0;
    }
    bottom
    {
        type            calculated;
        value           uniform 0;
    }
    inlet
    {
        type            calculated;
        value           nonuniform List<scalar> 10(-4.99967e-07 -1.49991e-06 -2.49985e-06 -3.49982e-06 -4.4998e-06 -5.4998e-06 -6.49982e-06 -7.49985e-06 -8.49991e-06 -9.49997e-06);
    }
    outlet
    {
        type            calculated;
        value           nonuniform 0();
    }
    frontAndBack
    {
        type            empty;
        value           nonuniform 0();
    }
    procBoundary0to1
    {
        type            processor;
        value           nonuniform List<scalar> 10(4.99967e-07 1.49991e-06 2.49985e-06 3.49982e-06 4.4998e-06 5.4998e-06 6.49982e-06 7.49985e-06 8.49991e-06 9.49997e-06);
    }
}


// ************************************************************************* //
