/*--------------------------------*- C++ -*----------------------------------*\
| =========                 |                                                 |
| \\      /  F ield         | OpenFOAM: The Open Source CFD Toolbox           |
|  \\    /   O peration     | Version:  5.0                                   |
|   \\  /    A nd           | Web:      www.OpenFOAM.org                      |
|    \\/     M anipulation  |                                                 |
\*---------------------------------------------------------------------------*/
FoamFile
{
    version     2.0;
    format      ascii;
    class       volVectorField;
    location    "0.2";
    object      U;
}
// * * * * * * * * * * * * * * * * * * * * * * * * * * * * * * * * * * * * * //

dimensions      [0 1 -1 0 0 0 0];

internalField   nonuniform List<vector> 
50
(
(0.00499967 -1.36632e-11 -1.21532e-32)
(0.00499967 -7.75434e-12 -4.02774e-32)
(0.00499967 2.32935e-12 -8.63638e-33)
(0.00499967 -1.6693e-12 -1.21758e-32)
(0.00499967 1.26958e-12 6.77434e-33)
(0.0149991 -3.93738e-11 2.31846e-44)
(0.0149991 -2.33572e-11 1.84426e-32)
(0.0149991 6.31676e-12 5.08709e-32)
(0.0149991 -4.47264e-12 -6.43048e-32)
(0.0149991 3.41923e-12 -2.10924e-32)
(0.0249985 -5.45167e-11 1.11248e-31)
(0.0249985 -3.49682e-11 -3.88053e-31)
(0.0249985 7.68741e-12 2.31736e-32)
(0.0249985 -5.20735e-12 -3.58193e-32)
(0.0249985 3.91884e-12 -4.22039e-32)
(0.0349982 -4.79198e-11 8.03369e-32)
(0.0349982 -3.27461e-11 -4.31898e-31)
(0.0349982 5.99387e-12 -4.65671e-32)
(0.0349982 -3.48732e-12 5.6974e-32)
(0.0349982 2.57524e-12 7.43321e-32)
(0.044998 -2.0759e-11 -4.70211e-31)
(0.044998 -1.5024e-11 2.27219e-31)
(0.044998 2.36821e-12 -7.00857e-32)
(0.044998 -4.36132e-13 -5.17108e-32)
(0.044998 3.27544e-13 5.7348e-32)
(0.054998 1.38924e-11 2.24085e-31)
(0.054998 8.64641e-12 -1.63965e-31)
(0.054998 -1.86006e-12 5.46281e-32)
(0.054998 2.90418e-12 2.62302e-33)
(0.054998 -2.13152e-12 -2.11251e-32)
(0.0649982 4.24743e-11 1.55915e-44)
(0.0649982 2.76977e-11 2.04702e-31)
(0.0649982 -5.58798e-12 3.4078e-32)
(0.0649982 5.53117e-12 -4.74574e-32)
(0.0649982 -4.0581e-12 1.84877e-32)
(0.0749985 5.08389e-11 4.42043e-31)
(0.0749985 3.15599e-11 1.49258e-31)
(0.0749985 -7.43379e-12 -2.31895e-32)
(0.0749985 6.44472e-12 8.23489e-32)
(0.0749985 -4.83333e-12 6.33954e-32)
(0.0849991 3.80248e-11 -1.31973e-31)
(0.0849991 2.21156e-11 -3.3017e-32)
(0.0849991 -6.2152e-12 2.31457e-32)
(0.0849991 5.04567e-12 3.26576e-32)
(0.0849991 -3.82321e-12 2.90917e-32)
(0.0949997 1.32128e-11 7.53417e-32)
(0.0949997 7.34956e-12 1.14543e-32)
(0.0949997 -2.31633e-12 1.57697e-32)
(0.0949997 1.80239e-12 -1.60833e-32)
(0.0949997 -1.38304e-12 4.08539e-33)
)
;

boundaryField
{
    top
    {
        type            fixedValue;
        value           uniform (0.1 0 0);
    }
    bottom
    {
        type            fixedValue;
        value           uniform (0 0 0);
    }
    inlet
    {
        type            zeroGradient;
    }
    outlet
    {
        type            zeroGradient;
    }
    frontAndBack
    {
        type            empty;
    }
    procBoundary0to1
    {
        type            processor;
        value           nonuniform List<vector> 10((0.00499967 -1.41486e-12 2.90211e-32) (0.0149991 -3.97909e-12 8.15245e-33) (0.0249985 -5.06479e-12 -1.43053e-32) (0.0349982 -4.39809e-12 2.18645e-32) (0.044998 -2.447e-12 4.26861e-32) (0.054998 6.41601e-14 7.10852e-44) (0.0649982 2.41178e-12 9.07888e-33) (0.0749985 3.89624e-12 9.23894e-32) (0.0849991 3.42288e-12 -4.12443e-32) (0.0949997 1.30404e-12 7.59533e-33));
    }
}


// ************************************************************************* //
