/*--------------------------------*- C++ -*----------------------------------*\
| =========                 |                                                 |
| \\      /  F ield         | OpenFOAM: The Open Source CFD Toolbox           |
|  \\    /   O peration     | Version:  5.0                                   |
|   \\  /    A nd           | Web:      www.OpenFOAM.org                      |
|    \\/     M anipulation  |                                                 |
\*---------------------------------------------------------------------------*/
FoamFile
{
    version     2.0;
    format      ascii;
    class       volScalarField;
    location    "33";
    object      p;
}
// * * * * * * * * * * * * * * * * * * * * * * * * * * * * * * * * * * * * * //

dimensions      [0 2 -2 0 0 0 0];

internalField   nonuniform List<scalar> 
1568
(
2.67116e-09
7.11924e-09
1.04091e-08
7.40044e-09
6.10085e-09
7.17946e-09
8.35275e-09
9.42302e-09
1.05446e-08
1.17451e-08
1.29875e-08
1.42985e-08
1.56402e-08
1.69418e-08
1.81914e-08
1.95514e-08
2.10174e-08
2.25146e-08
2.39715e-08
2.54498e-08
2.6922e-08
2.83386e-08
2.96139e-08
3.08046e-08
3.18673e-08
3.28819e-08
3.38829e-08
3.49553e-08
3.60083e-08
3.71314e-08
3.82637e-08
3.94296e-08
4.05504e-08
4.16964e-08
4.28098e-08
4.39434e-08
4.50181e-08
4.60646e-08
4.70001e-08
4.78995e-08
4.87878e-08
4.96978e-08
5.05392e-08
5.13354e-08
5.20571e-08
5.27362e-08
5.33658e-08
5.39467e-08
5.4406e-08
5.4751e-08
5.50602e-08
5.56053e-08
5.66364e-08
5.70853e-08
5.7603e-08
5.80693e-08
8.01763e-09
-3.85976e-08
2.02911e-09
1.3843e-08
1.13292e-08
1.19547e-08
1.33791e-08
1.45098e-08
1.54384e-08
1.65482e-08
1.77683e-08
1.89983e-08
2.00817e-08
2.12125e-08
2.2441e-08
2.37501e-08
2.49935e-08
2.63258e-08
2.75138e-08
2.87145e-08
2.9763e-08
3.09272e-08
3.18648e-08
3.28781e-08
3.36338e-08
3.45176e-08
3.51115e-08
3.59327e-08
3.64569e-08
3.72763e-08
3.77023e-08
3.8352e-08
3.87627e-08
3.94973e-08
3.99765e-08
4.07955e-08
4.1309e-08
4.21331e-08
4.27391e-08
4.35282e-08
4.41043e-08
4.48782e-08
4.53951e-08
4.59827e-08
4.64296e-08
4.70505e-08
4.75898e-08
4.81276e-08
4.85366e-08
4.93178e-08
5.01751e-08
5.05401e-08
5.10774e-08
4.99859e-08
5.40466e-08
5.72928e-08
1.16056e-08
-7.64489e-09
4.09063e-09
1.29739e-08
9.87198e-09
9.3234e-09
1.07472e-08
1.20777e-08
1.28396e-08
1.35377e-08
1.4892e-08
1.63383e-08
1.75319e-08
1.87006e-08
1.99353e-08
2.11006e-08
2.2313e-08
2.34937e-08
2.47184e-08
2.59334e-08
2.72319e-08
2.85101e-08
2.9798e-08
3.0943e-08
3.20944e-08
3.30971e-08
3.41096e-08
3.50982e-08
3.61615e-08
3.71381e-08
3.82068e-08
3.94254e-08
4.0819e-08
4.19247e-08
4.28625e-08
4.36565e-08
4.45064e-08
4.52436e-08
4.6035e-08
4.67297e-08
4.72915e-08
4.77666e-08
4.84503e-08
4.91075e-08
4.97917e-08
5.04191e-08
5.09841e-08
5.13399e-08
5.15885e-08
5.20137e-08
5.29533e-08
5.33588e-08
5.33649e-08
5.3043e-08
5.37173e-08
5.58686e-08
1.20987e-08
1.10572e-08
1.63496e-08
1.46045e-08
1.11321e-08
1.09024e-08
1.21459e-08
1.3401e-08
1.43671e-08
1.51973e-08
1.61643e-08
1.7232e-08
1.83057e-08
1.94495e-08
2.05245e-08
2.16356e-08
2.27041e-08
2.37631e-08
2.48213e-08
2.60325e-08
2.72242e-08
2.84419e-08
2.95514e-08
3.06965e-08
3.17866e-08
3.29293e-08
3.39603e-08
3.50524e-08
3.6056e-08
3.70814e-08
3.79946e-08
3.89763e-08
3.99092e-08
4.08299e-08
4.16898e-08
4.25992e-08
4.34416e-08
4.4317e-08
4.51405e-08
4.60367e-08
4.68215e-08
4.76349e-08
4.83961e-08
4.91423e-08
4.97813e-08
5.03977e-08
5.08855e-08
5.12177e-08
5.14385e-08
5.19941e-08
5.291e-08
5.33773e-08
5.39039e-08
5.25012e-08
5.4129e-08
5.43532e-08
1.136e-08
1.42822e-08
1.54866e-08
1.33085e-08
1.23653e-08
1.33425e-08
1.45831e-08
1.55853e-08
1.64165e-08
1.724e-08
1.80517e-08
1.88686e-08
1.97195e-08
2.0651e-08
2.16147e-08
2.26316e-08
2.36904e-08
2.47593e-08
2.58379e-08
2.69324e-08
2.8023e-08
2.90696e-08
3.00928e-08
3.11064e-08
3.21318e-08
3.31444e-08
3.41176e-08
3.50091e-08
3.59041e-08
3.67741e-08
3.76142e-08
3.83777e-08
3.91248e-08
3.98393e-08
4.06622e-08
4.14955e-08
4.23174e-08
4.31034e-08
4.39013e-08
4.46934e-08
4.54615e-08
4.6188e-08
4.68737e-08
4.74762e-08
4.80465e-08
4.86134e-08
4.91297e-08
4.94727e-08
4.96937e-08
5.02244e-08
5.11266e-08
5.14564e-08
5.16506e-08
5.21458e-08
5.16176e-08
5.24607e-08
1.21421e-08
1.43656e-08
1.40379e-08
1.29898e-08
1.37312e-08
1.50718e-08
1.6103e-08
1.68316e-08
1.74363e-08
1.81026e-08
1.88328e-08
1.9607e-08
2.04251e-08
2.13138e-08
2.22294e-08
2.31729e-08
2.41595e-08
2.51836e-08
2.6214e-08
2.72361e-08
2.82421e-08
2.92531e-08
3.02339e-08
3.12053e-08
3.21531e-08
3.30947e-08
3.39993e-08
3.48823e-08
3.57513e-08
3.66287e-08
3.74559e-08
3.82649e-08
3.90594e-08
3.98446e-08
4.062e-08
4.1402e-08
4.21519e-08
4.28896e-08
4.35915e-08
4.42787e-08
4.49261e-08
4.55456e-08
4.60981e-08
4.65895e-08
4.70869e-08
4.76264e-08
4.81059e-08
4.84025e-08
4.85803e-08
4.9061e-08
4.98234e-08
4.98915e-08
5.01081e-08
4.92291e-08
5.06034e-08
5.0936e-08
1.39942e-08
1.58738e-08
1.46003e-08
1.3982e-08
1.51473e-08
1.63577e-08
1.6988e-08
1.74443e-08
1.79389e-08
1.85038e-08
1.91902e-08
1.99535e-08
2.07573e-08
2.15945e-08
2.24553e-08
2.33444e-08
2.42692e-08
2.52154e-08
2.61819e-08
2.71516e-08
2.81315e-08
2.91116e-08
3.00882e-08
3.10468e-08
3.19963e-08
3.29213e-08
3.38396e-08
3.47422e-08
3.56481e-08
3.65225e-08
3.73686e-08
3.82158e-08
3.90972e-08
3.99421e-08
4.07343e-08
4.14802e-08
4.22246e-08
4.2936e-08
4.36162e-08
4.42557e-08
4.48661e-08
4.54375e-08
4.59713e-08
4.64652e-08
4.69674e-08
4.74856e-08
4.79253e-08
4.8141e-08
4.82168e-08
4.86293e-08
4.93634e-08
4.92274e-08
4.88799e-08
4.92155e-08
4.93e-08
4.9533e-08
1.60009e-08
1.80996e-08
1.63832e-08
1.54733e-08
1.65265e-08
1.74952e-08
1.77868e-08
1.80051e-08
1.84361e-08
1.89731e-08
1.96263e-08
2.03449e-08
2.11052e-08
2.18937e-08
2.2701e-08
2.35411e-08
2.44074e-08
2.52949e-08
2.62001e-08
2.71243e-08
2.80615e-08
2.90162e-08
2.99659e-08
3.09152e-08
3.18523e-08
3.27822e-08
3.36986e-08
3.46177e-08
3.55236e-08
3.64009e-08
3.72591e-08
3.81288e-08
3.89846e-08
3.98151e-08
4.0606e-08
4.1368e-08
4.21038e-08
4.28164e-08
4.3494e-08
4.41425e-08
4.47508e-08
4.53229e-08
4.58592e-08
4.6366e-08
4.68571e-08
4.73495e-08
4.77443e-08
4.79047e-08
4.79489e-08
4.83669e-08
4.90343e-08
4.8806e-08
4.8526e-08
4.7646e-08
4.85421e-08
4.83628e-08
1.77483e-08
1.99524e-08
1.81186e-08
1.69027e-08
1.77341e-08
1.84893e-08
1.86288e-08
1.87196e-08
1.90643e-08
1.95891e-08
2.02021e-08
2.08231e-08
2.15114e-08
2.22461e-08
2.30024e-08
2.37967e-08
2.46209e-08
2.54686e-08
2.63413e-08
2.72281e-08
2.81254e-08
2.90431e-08
2.99637e-08
3.08854e-08
3.18076e-08
3.27189e-08
3.3626e-08
3.45247e-08
3.54149e-08
3.62784e-08
3.71396e-08
3.79897e-08
3.88206e-08
3.96195e-08
4.04e-08
4.1155e-08
4.18882e-08
4.25923e-08
4.32758e-08
4.39279e-08
4.4544e-08
4.51139e-08
4.56424e-08
4.61286e-08
4.65995e-08
4.70724e-08
4.74467e-08
4.75567e-08
4.75509e-08
4.7941e-08
4.86019e-08
4.83287e-08
4.78034e-08
4.73738e-08
4.73169e-08
4.72724e-08
1.93805e-08
2.15901e-08
1.95028e-08
1.80645e-08
1.87469e-08
1.93706e-08
1.94311e-08
1.94438e-08
1.9691e-08
2.01581e-08
2.07278e-08
2.13128e-08
2.19343e-08
2.25929e-08
2.32932e-08
2.40482e-08
2.48351e-08
2.56496e-08
2.649e-08
2.7355e-08
2.82181e-08
2.90939e-08
2.99861e-08
3.08912e-08
3.17934e-08
3.26906e-08
3.35767e-08
3.44562e-08
3.53263e-08
3.61895e-08
3.70337e-08
3.7864e-08
3.86677e-08
3.94553e-08
4.0229e-08
4.09866e-08
4.17156e-08
4.24177e-08
4.30894e-08
4.3731e-08
4.43321e-08
4.48898e-08
4.53973e-08
4.58679e-08
4.6321e-08
4.67719e-08
4.71161e-08
4.72019e-08
4.7161e-08
4.75081e-08
4.81334e-08
4.78372e-08
4.73353e-08
4.6444e-08
4.65422e-08
4.63863e-08
2.07575e-08
2.28553e-08
2.0609e-08
1.90567e-08
1.96144e-08
2.01296e-08
2.01167e-08
2.0079e-08
2.02757e-08
2.06657e-08
2.11502e-08
2.17104e-08
2.22832e-08
2.28885e-08
2.35524e-08
2.42631e-08
2.50098e-08
2.57898e-08
2.65961e-08
2.74171e-08
2.8269e-08
2.91294e-08
3.00043e-08
3.08781e-08
3.17658e-08
3.2647e-08
3.35241e-08
3.43939e-08
3.52627e-08
3.61147e-08
3.69465e-08
3.77647e-08
3.85675e-08
3.93546e-08
4.01285e-08
4.08774e-08
4.15985e-08
4.22887e-08
4.29496e-08
4.35761e-08
4.41656e-08
4.47084e-08
4.52013e-08
4.56548e-08
4.60948e-08
4.6522e-08
4.68537e-08
4.6917e-08
4.68327e-08
4.71421e-08
4.77387e-08
4.73958e-08
4.67801e-08
4.59349e-08
4.59989e-08
4.56431e-08
2.18711e-08
2.38749e-08
2.15414e-08
1.98838e-08
2.03271e-08
2.07633e-08
2.06928e-08
2.06073e-08
2.076e-08
2.10984e-08
2.15271e-08
2.20204e-08
2.25459e-08
2.31274e-08
2.37718e-08
2.44351e-08
2.514e-08
2.58919e-08
2.66744e-08
2.74652e-08
2.82951e-08
2.9142e-08
2.99907e-08
3.08441e-08
3.17156e-08
3.25894e-08
3.3467e-08
3.43419e-08
3.52015e-08
3.60398e-08
3.68681e-08
3.76913e-08
3.84989e-08
3.92896e-08
4.00565e-08
4.0799e-08
4.15125e-08
4.21984e-08
4.28517e-08
4.34728e-08
4.4054e-08
4.45906e-08
4.50712e-08
4.551e-08
4.5936e-08
4.63507e-08
4.66639e-08
4.67103e-08
4.65951e-08
4.68769e-08
4.74507e-08
4.70665e-08
4.63461e-08
4.56651e-08
4.53857e-08
4.50492e-08
2.27117e-08
2.45346e-08
2.22537e-08
2.05413e-08
2.08832e-08
2.12674e-08
2.11533e-08
2.1026e-08
2.11338e-08
2.14354e-08
2.18258e-08
2.22705e-08
2.27612e-08
2.33057e-08
2.39089e-08
2.45521e-08
2.52432e-08
2.59787e-08
2.674e-08
2.75188e-08
2.83173e-08
2.91378e-08
2.99723e-08
3.08271e-08
3.16809e-08
3.25343e-08
3.34159e-08
3.43093e-08
3.51544e-08
3.59637e-08
3.67893e-08
3.76263e-08
3.84459e-08
3.9244e-08
4.0011e-08
4.07409e-08
4.14557e-08
4.21426e-08
4.27973e-08
4.3419e-08
4.39983e-08
4.45248e-08
4.4995e-08
4.54195e-08
4.58424e-08
4.62571e-08
4.65587e-08
4.65857e-08
4.64568e-08
4.67284e-08
4.73034e-08
4.68976e-08
4.61691e-08
4.50301e-08
4.55051e-08
4.47118e-08
2.3302e-08
2.50096e-08
2.27306e-08
2.10035e-08
2.12922e-08
2.16426e-08
2.14968e-08
2.13347e-08
2.14074e-08
2.16712e-08
2.20299e-08
2.24416e-08
2.29049e-08
2.34139e-08
2.39783e-08
2.46082e-08
2.52893e-08
2.59995e-08
2.67399e-08
2.75115e-08
2.83077e-08
2.91407e-08
3.00145e-08
3.09163e-08
3.17784e-08
3.25851e-08
3.33749e-08
3.41831e-08
3.5011e-08
3.58576e-08
3.67189e-08
3.75782e-08
3.84053e-08
3.92016e-08
3.99795e-08
4.0724e-08
4.14458e-08
4.21303e-08
4.27847e-08
4.34087e-08
4.39888e-08
4.45181e-08
4.49935e-08
4.5419e-08
4.58339e-08
4.62463e-08
4.6539e-08
4.65513e-08
4.64087e-08
4.66793e-08
4.7263e-08
4.68411e-08
4.5955e-08
4.53475e-08
4.50533e-08
4.45138e-08
2.36175e-08
2.5301e-08
2.30263e-08
2.12846e-08
2.15551e-08
2.18891e-08
2.17242e-08
2.1541e-08
2.15888e-08
2.18287e-08
2.21683e-08
2.25632e-08
2.30031e-08
2.34959e-08
2.40461e-08
2.46573e-08
2.53108e-08
2.59979e-08
2.67247e-08
2.74881e-08
2.82757e-08
2.90921e-08
2.9938e-08
3.08134e-08
3.169e-08
3.25343e-08
3.3325e-08
3.41072e-08
3.49603e-08
3.58655e-08
3.67441e-08
3.75908e-08
3.84062e-08
3.91944e-08
3.99702e-08
4.07352e-08
4.14572e-08
4.2145e-08
4.28021e-08
4.34239e-08
4.4004e-08
4.45388e-08
4.50258e-08
4.54649e-08
4.58827e-08
4.62884e-08
4.65813e-08
4.65911e-08
4.64497e-08
4.67298e-08
4.73325e-08
4.69388e-08
4.61274e-08
4.45902e-08
4.5639e-08
4.46168e-08
2.36811e-08
2.5526e-08
2.31614e-08
2.13773e-08
2.16673e-08
2.20015e-08
2.18339e-08
2.16401e-08
2.16758e-08
2.19049e-08
2.22364e-08
2.26183e-08
2.30448e-08
2.35277e-08
2.40741e-08
2.46717e-08
2.53111e-08
2.59909e-08
2.67099e-08
2.74575e-08
2.82325e-08
2.90237e-08
2.98156e-08
3.06278e-08
3.14979e-08
3.23967e-08
3.32723e-08
3.41248e-08
3.50171e-08
3.59187e-08
3.67787e-08
3.76044e-08
3.84215e-08
3.92158e-08
3.99934e-08
4.07575e-08
4.14853e-08
4.21844e-08
4.28549e-08
4.34816e-08
4.4067e-08
4.46051e-08
4.50904e-08
4.55342e-08
4.59611e-08
4.63765e-08
4.66783e-08
4.67022e-08
4.65757e-08
4.68771e-08
4.75002e-08
4.70862e-08
4.60581e-08
4.56115e-08
4.55182e-08
4.48061e-08
2.34851e-08
2.53183e-08
2.30088e-08
2.12797e-08
2.16242e-08
2.19788e-08
2.18252e-08
2.16369e-08
2.16706e-08
2.18956e-08
2.22168e-08
2.25895e-08
2.30074e-08
2.34828e-08
2.40168e-08
2.46051e-08
2.52387e-08
2.59169e-08
2.6632e-08
2.73812e-08
2.8158e-08
2.8958e-08
2.97706e-08
3.0609e-08
3.14753e-08
3.23553e-08
3.32237e-08
3.40931e-08
3.4983e-08
3.5879e-08
3.67473e-08
3.75971e-08
3.84288e-08
3.92418e-08
4.00351e-08
4.08107e-08
4.15522e-08
4.22645e-08
4.29458e-08
4.35897e-08
4.41888e-08
4.47373e-08
4.52299e-08
4.56791e-08
4.61172e-08
4.65464e-08
4.68635e-08
4.68996e-08
4.67933e-08
4.71245e-08
4.77767e-08
4.73875e-08
4.65893e-08
4.50981e-08
4.66277e-08
4.53237e-08
2.3035e-08
2.50025e-08
2.27535e-08
2.1033e-08
2.14302e-08
2.18244e-08
2.17012e-08
2.15305e-08
2.15737e-08
2.18022e-08
2.21258e-08
2.24977e-08
2.29151e-08
2.33862e-08
2.39181e-08
2.45031e-08
2.51363e-08
2.58123e-08
2.65293e-08
2.72798e-08
2.80623e-08
2.88686e-08
2.96979e-08
3.05458e-08
3.14154e-08
3.22928e-08
3.31755e-08
3.40619e-08
3.49646e-08
3.58617e-08
3.67449e-08
3.7612e-08
3.84675e-08
3.92984e-08
4.01119e-08
4.08987e-08
4.16571e-08
4.23828e-08
4.30783e-08
4.37333e-08
4.43456e-08
4.49076e-08
4.54143e-08
4.58791e-08
4.63344e-08
4.67835e-08
4.71175e-08
4.71755e-08
4.70978e-08
4.74671e-08
4.8162e-08
4.77968e-08
4.6852e-08
4.67777e-08
4.66105e-08
4.58998e-08
2.23663e-08
2.43848e-08
2.2318e-08
2.06458e-08
2.11034e-08
2.15483e-08
2.14707e-08
2.1331e-08
2.13932e-08
2.1635e-08
2.19668e-08
2.23461e-08
2.27673e-08
2.32411e-08
2.37713e-08
2.43593e-08
2.49943e-08
2.56749e-08
2.63923e-08
2.71475e-08
2.79333e-08
2.87525e-08
2.95936e-08
3.04577e-08
3.13367e-08
3.22316e-08
3.31295e-08
3.40393e-08
3.49542e-08
3.58718e-08
3.67718e-08
3.76646e-08
3.85378e-08
3.93922e-08
4.02209e-08
4.10267e-08
4.17971e-08
4.25379e-08
4.32428e-08
4.39129e-08
4.45401e-08
4.51168e-08
4.56365e-08
4.61185e-08
4.65967e-08
4.70674e-08
4.74252e-08
4.75069e-08
4.74657e-08
4.78786e-08
4.86051e-08
4.83126e-08
4.77474e-08
4.6314e-08
4.81153e-08
4.68411e-08
2.14685e-08
2.36735e-08
2.18793e-08
2.02152e-08
2.06923e-08
2.11777e-08
2.1147e-08
2.10436e-08
2.11297e-08
2.13858e-08
2.17291e-08
2.21186e-08
2.25458e-08
2.30188e-08
2.35474e-08
2.41342e-08
2.47804e-08
2.54727e-08
2.62015e-08
2.6965e-08
2.77625e-08
2.8593e-08
2.94495e-08
3.03328e-08
3.12349e-08
3.21555e-08
3.30817e-08
3.4015e-08
3.49509e-08
3.58901e-08
3.6817e-08
3.77362e-08
3.86369e-08
3.95162e-08
4.03664e-08
4.11934e-08
4.19808e-08
4.27397e-08
4.34567e-08
4.41445e-08
4.47853e-08
4.5381e-08
4.59141e-08
4.64231e-08
4.69207e-08
4.74171e-08
4.77931e-08
4.79057e-08
4.78999e-08
4.83634e-08
4.91378e-08
4.88604e-08
4.80508e-08
4.83458e-08
4.82475e-08
4.77841e-08
2.04967e-08
2.2769e-08
2.13262e-08
1.97275e-08
2.02502e-08
2.07604e-08
2.07679e-08
2.06955e-08
2.08012e-08
2.10722e-08
2.14303e-08
2.18264e-08
2.22546e-08
2.27228e-08
2.32682e-08
2.38707e-08
2.4531e-08
2.52164e-08
2.59582e-08
2.67334e-08
2.75535e-08
2.83967e-08
2.92805e-08
3.01795e-08
3.11074e-08
3.20401e-08
3.29959e-08
3.39471e-08
3.4923e-08
3.58911e-08
3.68611e-08
3.78125e-08
3.87629e-08
3.96684e-08
4.05581e-08
4.13998e-08
4.22251e-08
4.29932e-08
4.37437e-08
4.44378e-08
4.51136e-08
4.57166e-08
4.62748e-08
4.67878e-08
4.73099e-08
4.78083e-08
4.82177e-08
4.83505e-08
4.83946e-08
4.88889e-08
4.9685e-08
4.94542e-08
4.90206e-08
4.75407e-08
4.99953e-08
4.90752e-08
1.94331e-08
2.1819e-08
2.05724e-08
1.90831e-08
1.97074e-08
2.02789e-08
2.03428e-08
2.0318e-08
2.04475e-08
2.07313e-08
2.10992e-08
2.15073e-08
2.19538e-08
2.24349e-08
2.29911e-08
2.35957e-08
2.42715e-08
2.49642e-08
2.57216e-08
2.64914e-08
2.73283e-08
2.81708e-08
2.90837e-08
2.99785e-08
3.09428e-08
3.18778e-08
3.28891e-08
3.38583e-08
3.49029e-08
3.58741e-08
3.6895e-08
3.78498e-08
3.8868e-08
3.97687e-08
4.07127e-08
4.15522e-08
4.24389e-08
4.32071e-08
4.40176e-08
4.47128e-08
4.54385e-08
4.60377e-08
4.66403e-08
4.71531e-08
4.77228e-08
4.82198e-08
4.86632e-08
4.88159e-08
4.89419e-08
4.94787e-08
5.03004e-08
5.00468e-08
4.94674e-08
5.01927e-08
5.03253e-08
5.02853e-08
1.82547e-08
2.06122e-08
1.93846e-08
1.83319e-08
1.91584e-08
1.98305e-08
1.99706e-08
2.00301e-08
2.01953e-08
2.05251e-08
2.08953e-08
2.13388e-08
2.17704e-08
2.23228e-08
2.28743e-08
2.35612e-08
2.41765e-08
2.49335e-08
2.56321e-08
2.64915e-08
2.72514e-08
2.81855e-08
2.90012e-08
3.00044e-08
3.08668e-08
3.1928e-08
3.28317e-08
3.39435e-08
3.48681e-08
3.59679e-08
3.68323e-08
3.78964e-08
3.87358e-08
3.97916e-08
4.05946e-08
4.16138e-08
4.2357e-08
4.33114e-08
4.39991e-08
4.48831e-08
4.54759e-08
4.62296e-08
4.67164e-08
4.74018e-08
4.79101e-08
4.85607e-08
4.89063e-08
4.92215e-08
4.93645e-08
5.01066e-08
5.09323e-08
5.09185e-08
5.10478e-08
5.03524e-08
5.20345e-08
5.17295e-08
1.69004e-08
1.9296e-08
1.78324e-08
1.72733e-08
1.83298e-08
1.90547e-08
1.92602e-08
1.94153e-08
1.97026e-08
2.00981e-08
2.05175e-08
2.09765e-08
2.14673e-08
2.20115e-08
2.25747e-08
2.32254e-08
2.3897e-08
2.4641e-08
2.54031e-08
2.62289e-08
2.70607e-08
2.79599e-08
2.88553e-08
2.98391e-08
3.0787e-08
3.18319e-08
3.28255e-08
3.39229e-08
3.49437e-08
3.60154e-08
3.69503e-08
3.79446e-08
3.88396e-08
3.98398e-08
4.0744e-08
4.17252e-08
4.25839e-08
4.351e-08
4.43334e-08
4.52196e-08
4.59577e-08
4.67205e-08
4.73266e-08
4.79562e-08
4.85201e-08
4.91488e-08
4.96242e-08
4.99519e-08
5.02255e-08
5.10214e-08
5.19999e-08
5.20126e-08
5.18731e-08
5.32565e-08
5.29562e-08
5.308e-08
1.55312e-08
1.78286e-08
1.64276e-08
1.6053e-08
1.70714e-08
1.76617e-08
1.78173e-08
1.79654e-08
1.83466e-08
1.87089e-08
1.91763e-08
1.95497e-08
2.01178e-08
2.05153e-08
2.11625e-08
2.16454e-08
2.25225e-08
2.31223e-08
2.41662e-08
2.48291e-08
2.59953e-08
2.66935e-08
2.79909e-08
2.87473e-08
3.01788e-08
3.10015e-08
3.25807e-08
3.34381e-08
3.50498e-08
3.58622e-08
3.74693e-08
3.82373e-08
3.98167e-08
4.04983e-08
4.19792e-08
4.25656e-08
4.39947e-08
4.45528e-08
4.59533e-08
4.64442e-08
4.76898e-08
4.81597e-08
4.92606e-08
4.95523e-08
5.04712e-08
5.07894e-08
5.1569e-08
5.15755e-08
5.2041e-08
5.26258e-08
5.36271e-08
5.33105e-08
5.35574e-08
5.42324e-08
5.53986e-08
5.4647e-08
1.42835e-08
1.75415e-08
1.69275e-08
1.65906e-08
1.72353e-08
1.75719e-08
1.75735e-08
1.77384e-08
1.79553e-08
1.83621e-08
1.86655e-08
1.91843e-08
1.95603e-08
2.02555e-08
2.07104e-08
2.1583e-08
2.21235e-08
2.31868e-08
2.37912e-08
2.50434e-08
2.56706e-08
2.70306e-08
2.76611e-08
2.91857e-08
2.9843e-08
3.1483e-08
3.21765e-08
3.38811e-08
3.45296e-08
3.63625e-08
3.71899e-08
3.93065e-08
4.01721e-08
4.19999e-08
4.23559e-08
4.38453e-08
4.41655e-08
4.56653e-08
4.5917e-08
4.69932e-08
4.70448e-08
4.82556e-08
4.84942e-08
4.95628e-08
4.97669e-08
5.0713e-08
5.08254e-08
5.13926e-08
5.15018e-08
5.24302e-08
5.27245e-08
5.22967e-08
5.23369e-08
5.38875e-08
5.54396e-08
5.60196e-08
1.30656e-08
1.58571e-08
1.66182e-08
1.65919e-08
1.74596e-08
1.81346e-08
1.8519e-08
1.87469e-08
1.90476e-08
1.93806e-08
1.9825e-08
2.02315e-08
2.07705e-08
2.13155e-08
2.20401e-08
2.26617e-08
2.34366e-08
2.41216e-08
2.50453e-08
2.58798e-08
2.69384e-08
2.78043e-08
2.88845e-08
2.97647e-08
3.08885e-08
3.17983e-08
3.30062e-08
3.38842e-08
3.50271e-08
3.58383e-08
3.6933e-08
3.76776e-08
3.8775e-08
3.96015e-08
4.07551e-08
4.1628e-08
4.28507e-08
4.37409e-08
4.47691e-08
4.54755e-08
4.63728e-08
4.69755e-08
4.76839e-08
4.81767e-08
4.88414e-08
4.93548e-08
4.99354e-08
5.0356e-08
5.09738e-08
5.18049e-08
5.25539e-08
5.23323e-08
5.26727e-08
5.40334e-08
5.70124e-08
5.76662e-08
1.25671e-08
1.33814e-08
1.42952e-08
1.4794e-08
1.51646e-08
1.54017e-08
1.56318e-08
1.59135e-08
1.625e-08
1.66112e-08
1.70141e-08
1.74513e-08
1.79537e-08
1.85027e-08
1.91383e-08
1.98304e-08
2.06232e-08
2.14689e-08
2.24143e-08
2.33588e-08
2.43285e-08
2.53609e-08
2.65777e-08
2.78308e-08
2.91652e-08
3.04821e-08
3.1832e-08
3.31878e-08
3.47998e-08
3.64646e-08
3.8085e-08
3.94728e-08
4.08212e-08
4.20731e-08
4.33649e-08
4.45424e-08
4.56389e-08
4.65504e-08
4.75244e-08
4.84855e-08
4.94486e-08
5.02901e-08
5.10974e-08
5.17875e-08
5.24459e-08
5.3018e-08
5.35674e-08
5.40043e-08
5.43712e-08
5.47268e-08
5.52249e-08
5.57693e-08
5.62589e-08
5.66203e-08
5.76253e-08
5.87019e-08
)
;

boundaryField
{
    top
    {
        type            zeroGradient;
    }
    bottom
    {
        type            zeroGradient;
    }
    rotatingWall
    {
        type            zeroGradient;
    }
    wall
    {
        type            zeroGradient;
    }
    frontAndBack
    {
        type            empty;
    }
}


// ************************************************************************* //
