/*--------------------------------*- C++ -*----------------------------------*\
| =========                 |                                                 |
| \\      /  F ield         | OpenFOAM: The Open Source CFD Toolbox           |
|  \\    /   O peration     | Version:  5.0                                   |
|   \\  /    A nd           | Web:      www.OpenFOAM.org                      |
|    \\/     M anipulation  |                                                 |
\*---------------------------------------------------------------------------*/
FoamFile
{
    version     2.0;
    format      ascii;
    class       volVectorField;
    location    "3.8";
    object      U;
}
// * * * * * * * * * * * * * * * * * * * * * * * * * * * * * * * * * * * * * //

dimensions      [0 1 -1 0 0 0 0];

internalField   nonuniform List<vector> 
50
(
(0.986276 0.00422366 6.14975e-23)
(0.985385 -7.58037e-06 -4.39737e-23)
(0.984007 1.70226e-06 -4.61725e-23)
(0.985873 5.91989e-05 -4.61322e-23)
(0.981193 -0.00205175 3.29813e-23)
(0.985368 0.00241454 9.08006e-23)
(0.939611 0.000871302 1.29202e-23)
(0.937442 0.000170077 -4.53926e-23)
(0.936087 0.00010258 5.20769e-24)
(0.932831 -0.00212485 8.52211e-24)
(0.786148 0.00347633 -8.95568e-37)
(0.789623 -3.97345e-05 4.68478e-23)
(0.787758 3.18874e-05 5.3588e-26)
(0.789576 0.000249033 -3.73612e-23)
(0.786648 -0.00135349 -4.09475e-23)
(0.789871 0.00554133 -3.46574e-23)
(0.796566 0.00403346 -5.9465e-23)
(0.797959 0.000736758 6.57433e-23)
(0.798567 0.000340139 6.53923e-24)
(0.795584 -0.000823537 -1.48581e-22)
(0.589211 -8.74177e-05 -2.58732e-23)
(0.592921 0.00019523 -2.95735e-26)
(0.5913 3.30923e-05 2.75384e-23)
(0.592747 3.51364e-05 -5.5749e-23)
(0.591119 0.000274305 -5.462e-23)
(0.593506 0.00254877 4.8144e-23)
(0.610722 0.00306307 4.06495e-23)
(0.613773 0.000478129 3.03818e-23)
(0.614966 2.75408e-05 -1.2359e-24)
(0.613649 -0.000456751 -5.72663e-23)
(0.39513 -0.00265941 -1.44185e-22)
(0.395006 0.000313414 3.13505e-23)
(0.394706 2.29065e-05 -4.12013e-23)
(0.39527 -9.55548e-05 -1.58891e-23)
(0.395296 0.00143893 -5.21576e-23)
(0.396744 -0.00059087 1.2299e-22)
(0.405155 0.0011393 1.18356e-23)
(0.407871 0.000148276 -2.58061e-24)
(0.407954 -0.000237186 -2.14727e-23)
(0.410057 0.00278345 -1.85502e-22)
(0.200824 -0.0113056 3.64523e-23)
(0.197126 4.40527e-05 1.57045e-23)
(0.19813 1.62507e-05 -4.94728e-23)
(0.197813 -2.84059e-06 -1.50658e-23)
(0.199138 0.00565553 3.40528e-23)
(0.199603 -0.0051668 7.95315e-25)
(0.200866 0.000632831 1.65037e-23)
(0.202405 0.000111789 1.10194e-24)
(0.20125 -1.56365e-05 0)
(0.205537 0.0115103 0)
)
;

boundaryField
{
    top
    {
        type            fixedValue;
        value           uniform (0 0 0);
    }
    bottom
    {
        type            symmetryPlane;
    }
    inlet
    {
        type            pressureInletVelocity;
        value           nonuniform List<vector> 5((0.987142 0 0) (0.785401 0 0) (0.587912 0 0) (0.394959 0 0) (0.202756 0 0));
    }
    outlet
    {
        type            inletOutlet;
        inletValue      uniform (1 0 0);
        value           nonuniform List<vector> 5((0.932831 -0.00212485 8.52211e-24) (0.795584 -0.000823537 -1.48581e-22) (0.613649 -0.000456751 -5.72663e-23) (0.410057 0.00278345 -1.85502e-22) (0.205537 0.0115103 0));
    }
    frontAndBack
    {
        type            empty;
    }
}


// ************************************************************************* //
