/*--------------------------------*- C++ -*----------------------------------*\
| =========                 |                                                 |
| \\      /  F ield         | OpenFOAM: The Open Source CFD Toolbox           |
|  \\    /   O peration     | Version:  5.0                                   |
|   \\  /    A nd           | Web:      www.OpenFOAM.org                      |
|    \\/     M anipulation  |                                                 |
\*---------------------------------------------------------------------------*/
FoamFile
{
    version     2.0;
    format      ascii;
    class       surfaceScalarField;
    location    "1.2";
    object      phi;
}
// * * * * * * * * * * * * * * * * * * * * * * * * * * * * * * * * * * * * * //

dimensions      [0 3 -1 0 0 0 0];

internalField   nonuniform List<scalar> 
85
(
0.000100749
1.274e-19
0.000100749
8.6259e-21
0.000100749
7.12e-20
0.000100749
9.91388e-20
4.20522e-20
0.000100749
2.19197e-19
0.000100749
1.13007e-20
0.000100749
1.21069e-20
0.000100749
1.61131e-19
-7.00926e-20
0.000100749
4.31675e-19
0.000100749
2.78014e-20
0.000100749
-2.66445e-20
0.000100749
1.17534e-19
1.94598e-19
0.000100749
3.80343e-19
0.000100749
3.69012e-20
0.000100749
8.17601e-20
0.000100749
1.76465e-19
3.43278e-19
0.000100749
2.2276e-19
0.000100749
1.82894e-19
0.000100749
3.07091e-19
0.000100749
3.23868e-19
4.63828e-19
0.000100749
3.26124e-19
0.000100749
2.8435e-19
0.000100749
3.30256e-19
0.000100749
2.45573e-19
4.1033e-19
0.000100749
2.04424e-19
0.000100749
2.14541e-19
0.000100749
3.00294e-19
0.000100749
2.62835e-19
5.296e-19
0.000100749
2.5391e-19
0.000100749
3.13261e-19
0.000100749
2.69259e-19
0.000100749
4.71581e-19
5.55794e-19
0.000100749
2.50979e-19
0.000100749
3.83912e-19
0.000100749
4.9302e-19
0.000100749
4.67019e-19
6.12286e-19
0.000100749
0.000100749
0.000100749
0.000100749
)
;

boundaryField
{
    top
    {
        type            calculated;
        value           nonuniform List<scalar> 5(3.45049e-19 4.27004e-19 3.94297e-19 3.60697e-19 6.10365e-19);
    }
    bottom
    {
        type            symmetryPlane;
        value           uniform 0;
    }
    inlet
    {
        type            calculated;
        value           nonuniform List<scalar> 10(-0.000100749 -0.000100749 -0.000100749 -0.000100749 -0.000100749 -0.000100749 -0.000100749 -0.000100749 -0.000100749 -0.000100749);
    }
    outlet
    {
        type            calculated;
        value           nonuniform 0();
    }
    frontAndBack
    {
        type            empty;
        value           nonuniform 0();
    }
    procBoundary0to1
    {
        type            processor;
        value           nonuniform List<scalar> 10(0.000100749 0.000100749 0.000100749 0.000100749 0.000100749 0.000100749 0.000100749 0.000100749 0.000100749 0.000100749);
    }
}


// ************************************************************************* //
