/*--------------------------------*- C++ -*----------------------------------*\
| =========                 |                                                 |
| \\      /  F ield         | OpenFOAM: The Open Source CFD Toolbox           |
|  \\    /   O peration     | Version:  5.0                                   |
|   \\  /    A nd           | Web:      www.OpenFOAM.org                      |
|    \\/     M anipulation  |                                                 |
\*---------------------------------------------------------------------------*/
FoamFile
{
    version     2.0;
    format      ascii;
    class       volScalarField;
    location    "1.2";
    object      shearRate;
}
// * * * * * * * * * * * * * * * * * * * * * * * * * * * * * * * * * * * * * //

dimensions      [0 0 -1 0 0 0 0];

internalField   nonuniform List<scalar> 
50
(
1.02386e-14
8.76873e-15
2.41941e-14
4.98456e-15
4.38402e-14
2.39919e-14
1.01185e-14
2.60447e-14
4.36829e-14
2.19491e-14
6.53406e-15
1.25468e-14
2.29351e-14
4.34987e-14
2.45303e-14
2.20211e-14
1.53919e-14
1.8489e-15
4.23331e-15
2.7445e-14
2.19887e-14
1.73488e-14
7.44063e-15
6.52056e-14
4.4389e-14
7.81368e-15
1.65146e-14
7.49018e-15
6.27356e-15
2.65376e-15
2.55308e-14
1.12605e-14
4.40698e-14
6.51787e-14
8.67887e-14
2.36432e-14
2.27956e-14
9.90796e-15
8.16299e-15
2.25863e-14
4.39365e-14
6.58091e-14
4.38144e-14
4.38933e-14
6.51518e-14
2.28711e-14
8.68224e-14
8.70362e-14
8.73347e-14
1.52102e-13
)
;

boundaryField
{
    top
    {
        type            zeroGradient;
    }
    bottom
    {
        type            symmetryPlane;
    }
    inlet
    {
        type            zeroGradient;
    }
    outlet
    {
        type            zeroGradient;
    }
    frontAndBack
    {
        type            empty;
    }
    procBoundary0to1
    {
        type            processor;
        value           nonuniform List<scalar> 10(1.29747e-14 2.4479e-14 2.31983e-14 6.18987e-15 4.44407e-14 2.48528e-14 1.52064e-13 2.32611e-14 6.59902e-14 1.73789e-13);
    }
}


// ************************************************************************* //
