/*--------------------------------*- C++ -*----------------------------------*\
| =========                 |                                                 |
| \\      /  F ield         | OpenFOAM: The Open Source CFD Toolbox           |
|  \\    /   O peration     | Version:  5.0                                   |
|   \\  /    A nd           | Web:      www.OpenFOAM.org                      |
|    \\/     M anipulation  |                                                 |
\*---------------------------------------------------------------------------*/
FoamFile
{
    version     2.0;
    format      ascii;
    class       volVectorField;
    location    "1.2";
    object      U;
}
// * * * * * * * * * * * * * * * * * * * * * * * * * * * * * * * * * * * * * //

dimensions      [0 1 -1 0 0 0 0];

internalField   nonuniform List<vector> 
25
(
(1.00857 6.00354e-07 1.03957e-27)
(1.00848 -1.40737e-06 -3.25961e-23)
(1.00876 8.68568e-07 -3.26301e-23)
(1.00814 -2.07752e-05 -3.25659e-23)
(1.01019 -6.76212e-05 -4.75428e-25)
(0.927881 2.01907e-06 -7.17374e-37)
(0.927797 -4.58718e-06 2.82247e-23)
(0.928058 4.3034e-06 3.85646e-27)
(0.927463 -5.78546e-05 -2.84377e-23)
(0.928834 -0.000140157 -2.82114e-23)
(0.766511 3.20064e-06 -2.76042e-23)
(0.766439 -7.01462e-06 -7.32231e-26)
(0.766658 9.14624e-06 2.82325e-23)
(0.766139 -6.77873e-05 -5.63685e-23)
(0.766956 -6.5919e-05 -5.632e-23)
(0.524456 2.92896e-06 5.52957e-23)
(0.524403 -6.2208e-06 2.81421e-23)
(0.524559 9.64893e-06 -5.64634e-23)
(0.524182 -4.60126e-05 -2.79434e-23)
(0.524659 8.18119e-06 5.72581e-23)
(0.201714 1.0897e-06 3.97192e-23)
(0.201692 -2.28603e-06 2.01062e-23)
(0.201758 3.75914e-06 -6.03577e-23)
(0.2016 -1.46924e-05 -2.0091e-23)
(0.20179 1.01577e-05 4.02451e-23)
)
;

boundaryField
{
    top
    {
        type            fixedValue;
        value           uniform (0 0 0);
    }
    bottom
    {
        type            symmetryPlane;
    }
    inlet
    {
        type            pressureInletVelocity;
        value           nonuniform List<vector> 5((1.00856 -0 -0) (0.927873 -0 -0) (0.766503 -0 -0) (0.524448 -0 -0) (0.201709 -0 -0));
    }
    outlet
    {
        type            inletOutlet;
        inletValue      nonuniform 0();
        value           nonuniform 0();
    }
    frontAndBack
    {
        type            empty;
    }
    procBoundary0to1
    {
        type            processor;
        value           nonuniform List<vector> 5((1.00738 -0.000999395 6.64651e-23) (0.926307 -0.00420676 1.64416e-23) (0.764951 -0.00252138 2.6518e-23) (0.523363 -0.000774413 6.58593e-23) (0.201339 -0.000142921 3.81378e-23));
    }
}


// ************************************************************************* //
