/*--------------------------------*- C++ -*----------------------------------*\
| =========                 |                                                 |
| \\      /  F ield         | OpenFOAM: The Open Source CFD Toolbox           |
|  \\    /   O peration     | Version:  5.0                                   |
|   \\  /    A nd           | Web:      www.OpenFOAM.org                      |
|    \\/     M anipulation  |                                                 |
\*---------------------------------------------------------------------------*/
FoamFile
{
    version     2.0;
    format      ascii;
    class       volVectorField;
    location    "1.2";
    object      U;
}
// * * * * * * * * * * * * * * * * * * * * * * * * * * * * * * * * * * * * * //

dimensions      [0 1 -1 0 0 0 0];

internalField   nonuniform List<vector> 
25
(
(1 5.30116e-10 3.48558e-30)
(1 5.42259e-10 -3.2324e-23)
(1 -5.0249e-10 -3.2324e-23)
(1 -4.7858e-09 -3.2324e-23)
(1 -5.14781e-10 2.30299e-30)
(0.92 2.04507e-09 -7.11298e-37)
(0.92 9.3548e-10 2.79794e-23)
(0.92 -1.17307e-09 -6.02329e-30)
(0.92 -1.50859e-08 -2.79794e-23)
(0.92 -1.68088e-09 -2.79794e-23)
(0.76 4.47162e-09 -2.73702e-23)
(0.76 -4.15471e-10 -7.82562e-31)
(0.76 -1.00297e-09 2.79794e-23)
(0.76 -2.61903e-08 -5.59588e-23)
(0.76 -3.33366e-09 -5.59588e-23)
(0.52 5.66989e-09 5.48442e-23)
(0.52 -2.02173e-09 2.79794e-23)
(0.52 -3.6933e-10 -5.59588e-23)
(0.52 -2.94378e-08 -2.7979e-23)
(0.52 -3.84531e-09 5.59588e-23)
(0.2 2.49214e-09 3.93808e-23)
(0.2 -1.11505e-09 1.99394e-23)
(0.2 -7.14431e-11 -5.98181e-23)
(0.2 -1.24532e-08 -1.99393e-23)
(0.2 -1.56994e-09 3.98787e-23)
)
;

boundaryField
{
    top
    {
        type            fixedValue;
        value           uniform (0 0 0);
    }
    bottom
    {
        type            symmetryPlane;
    }
    inlet
    {
        type            pressureInletVelocity;
        value           nonuniform List<vector> 5((1 -0 -0) (0.92 -0 -0) (0.76 -0 -0) (0.52 -0 -0) (0.2 -0 -0));
    }
    outlet
    {
        type            inletOutlet;
        inletValue      nonuniform 0();
        value           nonuniform 0();
    }
    frontAndBack
    {
        type            empty;
    }
    procBoundary0to1
    {
        type            processor;
        value           nonuniform List<vector> 5((1 5.99508e-09 6.46481e-23) (0.92 1.78825e-08 -2.79794e-23) (0.76 2.88766e-08 2.79795e-23) (0.52 3.14233e-08 5.5959e-23) (0.2 1.3196e-08 3.98786e-23));
    }
}


// ************************************************************************* //
