/*--------------------------------*- C++ -*----------------------------------*\
| =========                 |                                                 |
| \\      /  F ield         | OpenFOAM: The Open Source CFD Toolbox           |
|  \\    /   O peration     | Version:  5.0                                   |
|   \\  /    A nd           | Web:      www.OpenFOAM.org                      |
|    \\/     M anipulation  |                                                 |
\*---------------------------------------------------------------------------*/
FoamFile
{
    version     2.0;
    format      ascii;
    class       volVectorField;
    location    "1.2";
    object      U;
}
// * * * * * * * * * * * * * * * * * * * * * * * * * * * * * * * * * * * * * //

dimensions      [0 1 -1 0 0 0 0];

internalField   nonuniform List<vector> 
50
(
(1.00749 3.52655e-17 5.00167e-37)
(1.00749 -6.20407e-17 -1.06214e-36)
(1.00749 3.84783e-17 -4.33334e-37)
(1.00749 3.32598e-17 2.87452e-36)
(1.00749 1.42198e-17 2.32044e-36)
(1.00749 -6.50514e-17 1.60252e-36)
(1.00749 -1.09348e-16 -1.81692e-36)
(1.00749 -3.86952e-17 2.54731e-36)
(1.00749 7.41107e-17 1.81692e-36)
(1.00749 -2.61827e-17 3.97745e-36)
(1.00749 -1.17159e-17 -1.59889e-36)
(1.00749 -2.23232e-16 3.16143e-37)
(1.00749 -1.14653e-16 -1.05363e-35)
(1.00749 8.08254e-17 -2.00985e-51)
(1.00749 1.01677e-16 -6.21386e-36)
(1.00749 7.20629e-17 2.25297e-36)
(1.00749 -2.86595e-16 2.12942e-36)
(1.00749 -1.48663e-16 -5.45075e-36)
(1.00749 9.96801e-17 -5.1237e-37)
(1.00749 2.7003e-16 -1.82118e-36)
(1.00749 9.83107e-17 4.3606e-37)
(1.00749 -3.60712e-16 3.08876e-37)
(1.00749 -7.77406e-17 6.04832e-49)
(1.00749 1.86535e-16 0)
(1.00749 4.05627e-16 0)
(1.00749 1.49287e-16 7.16856e-49)
(1.00749 -4.46646e-16 7.05529e-49)
(1.00749 -8.27235e-17 1.22064e-48)
(1.00749 2.94132e-16 0)
(1.00749 5.1543e-16 0)
(1.00749 1.41124e-16 -2.16213e-37)
(1.00749 -4.21981e-16 -7.57472e-36)
(1.00749 -2.20406e-16 4.35696e-36)
(1.00749 3.47119e-16 1.02474e-36)
(1.00749 6.08879e-16 0)
(1.00749 1.95833e-16 -7.26766e-36)
(1.00749 -4.89932e-16 -6.14117e-37)
(1.00749 -2.97846e-16 -2.14432e-35)
(1.00749 4.25393e-16 -1.30455e-36)
(1.00749 6.53212e-16 7.62467e-37)
(1.00749 2.52783e-16 3.63383e-36)
(1.00749 -5.52641e-16 -1.81692e-36)
(1.00749 -2.60803e-16 7.26766e-36)
(1.00749 4.0869e-16 -5.14187e-37)
(1.00749 7.70289e-16 -2.87382e-36)
(1.00749 3.24354e-16 2.69859e-36)
(1.00749 -4.76983e-16 -1.14868e-36)
(1.00749 -2.02682e-16 6.87832e-36)
(1.00749 4.07442e-16 2.93016e-36)
(1.00749 8.511e-16 2.91557e-36)
)
;

boundaryField
{
    top
    {
        type            zeroGradient;
    }
    bottom
    {
        type            symmetryPlane;
    }
    inlet
    {
        type            pressureInletVelocity;
        value           nonuniform 0();
    }
    outlet
    {
        type            inletOutlet;
        inletValue      uniform (1 0 0);
        value           nonuniform List<vector> 10((1.00749 1.42198e-17 2.32044e-36) (1.00749 -2.61827e-17 3.97745e-36) (1.00749 1.01677e-16 -6.21386e-36) (1.00749 2.7003e-16 -1.82118e-36) (1.00749 4.05627e-16 0) (1.00749 5.1543e-16 0) (1.00749 6.08879e-16 0) (1.00749 6.53212e-16 7.62467e-37) (1.00749 7.70289e-16 -2.87382e-36) (1.00749 8.511e-16 2.91557e-36));
    }
    frontAndBack
    {
        type            empty;
    }
    procBoundary1to0
    {
        type            processor;
        value           nonuniform List<vector> 10((1.00749 -1.29954e-17 -1.43726e-36) (1.00749 -6.36026e-17 -2.1803e-37) (1.00749 4.04732e-17 -4.32426e-37) (1.00749 3.06682e-16 2.25297e-36) (1.00749 3.99808e-16 4.07716e-36) (1.00749 4.28196e-16 -2.21664e-37) (1.00749 4.80985e-16 -1.81692e-36) (1.00749 5.51173e-16 6.75892e-37) (1.00749 6.05007e-16 1.72564e-51) (1.00749 6.14663e-16 1.53525e-52));
    }
}


// ************************************************************************* //
