/*--------------------------------*- C++ -*----------------------------------*\
| =========                 |                                                 |
| \\      /  F ield         | OpenFOAM: The Open Source CFD Toolbox           |
|  \\    /   O peration     | Version:  5.0                                   |
|   \\  /    A nd           | Web:      www.OpenFOAM.org                      |
|    \\/     M anipulation  |                                                 |
\*---------------------------------------------------------------------------*/
FoamFile
{
    version     2.0;
    format      ascii;
    class       volScalarField;
    location    "312";
    object      p;
}
// * * * * * * * * * * * * * * * * * * * * * * * * * * * * * * * * * * * * * //

dimensions      [0 2 -2 0 0 0 0];

internalField   nonuniform List<scalar> 
1568
(
5.80027e-16
2.25899e-15
3.64933e-15
4.26042e-15
4.91981e-15
5.58226e-15
6.00626e-15
6.43383e-15
6.84552e-15
7.20933e-15
7.55258e-15
7.89264e-15
8.22942e-15
8.55881e-15
8.88932e-15
9.22556e-15
9.56546e-15
9.91253e-15
1.02657e-14
1.06286e-14
1.0997e-14
1.13753e-14
1.17436e-14
1.20206e-14
1.22283e-14
1.25063e-14
1.29528e-14
1.36065e-14
1.43404e-14
1.49946e-14
1.54414e-14
1.57231e-14
1.59287e-14
1.62059e-14
1.65725e-14
1.69535e-14
1.73173e-14
1.76847e-14
1.8037e-14
1.83853e-14
1.87244e-14
1.90629e-14
1.93906e-14
1.9723e-14
2.00538e-14
2.03929e-14
2.07401e-14
2.11094e-14
2.15e-14
2.19263e-14
2.24113e-14
2.29712e-14
2.36186e-14
2.43668e-14
2.55952e-14
2.69525e-14
1.61475e-15
1.29622e-15
5.73266e-15
4.94921e-15
4.34884e-15
6.28888e-15
6.42199e-15
6.64345e-15
7.24079e-15
7.63119e-15
7.91347e-15
8.2389e-15
8.58783e-15
8.89689e-15
9.2288e-15
9.55901e-15
9.88045e-15
1.02162e-14
1.05538e-14
1.08997e-14
1.12402e-14
1.16056e-14
1.19662e-14
1.23861e-14
1.27785e-14
1.31859e-14
1.35605e-14
1.38874e-14
1.40535e-14
1.44271e-14
1.47962e-14
1.51878e-14
1.55262e-14
1.5972e-14
1.63223e-14
1.67236e-14
1.70243e-14
1.74092e-14
1.77175e-14
1.80557e-14
1.83823e-14
1.87501e-14
1.90489e-14
1.93774e-14
1.96883e-14
2.004e-14
2.03816e-14
2.07615e-14
2.11317e-14
2.16048e-14
2.21521e-14
2.26528e-14
2.33595e-14
2.3787e-14
2.54865e-14
2.62867e-14
2.70202e-15
4.33407e-15
2.52421e-15
4.89073e-15
5.86592e-15
6.36054e-15
6.47238e-15
7.15502e-15
7.56567e-15
7.68862e-15
8.21341e-15
8.63366e-15
8.84621e-15
9.16437e-15
9.50333e-15
9.76418e-15
1.00796e-14
1.0393e-14
1.07179e-14
1.10185e-14
1.13474e-14
1.16792e-14
1.20468e-14
1.23746e-14
1.27202e-14
1.29949e-14
1.33589e-14
1.37575e-14
1.41937e-14
1.45458e-14
1.49082e-14
1.52532e-14
1.56931e-14
1.60168e-14
1.63391e-14
1.66336e-14
1.70049e-14
1.72693e-14
1.76011e-14
1.79196e-14
1.81775e-14
1.83951e-14
1.87519e-14
1.90498e-14
1.93883e-14
1.97158e-14
2.00629e-14
2.04307e-14
2.08458e-14
2.12783e-14
2.16779e-14
2.20077e-14
2.33127e-14
2.3592e-14
2.45506e-14
2.5424e-14
3.38735e-15
4.48415e-15
5.92856e-15
5.65261e-15
6.6726e-15
7.06081e-15
7.20968e-15
7.84685e-15
8.35568e-15
8.64372e-15
8.91575e-15
9.19199e-15
9.51708e-15
9.85938e-15
1.01037e-14
1.04145e-14
1.07094e-14
1.09733e-14
1.1227e-14
1.15465e-14
1.1822e-14
1.20988e-14
1.23522e-14
1.26395e-14
1.28931e-14
1.31929e-14
1.34903e-14
1.38306e-14
1.41547e-14
1.45034e-14
1.47999e-14
1.50174e-14
1.52195e-14
1.54738e-14
1.57828e-14
1.6066e-14
1.63544e-14
1.66602e-14
1.69219e-14
1.72245e-14
1.75522e-14
1.78968e-14
1.81744e-14
1.8459e-14
1.87581e-14
1.90715e-14
1.93705e-14
1.97664e-14
2.01564e-14
2.04887e-14
2.11744e-14
2.17536e-14
2.20392e-14
2.23829e-14
2.41187e-14
2.4621e-14
4.20928e-15
4.20142e-15
5.85786e-15
6.11056e-15
6.86069e-15
7.2261e-15
7.67342e-15
8.17356e-15
8.44807e-15
8.78991e-15
9.1269e-15
9.43721e-15
9.72097e-15
9.97306e-15
1.02322e-14
1.05149e-14
1.07781e-14
1.1054e-14
1.1328e-14
1.15966e-14
1.18607e-14
1.21351e-14
1.24156e-14
1.2705e-14
1.29744e-14
1.32649e-14
1.35506e-14
1.38244e-14
1.41002e-14
1.43928e-14
1.46954e-14
1.50008e-14
1.52864e-14
1.55697e-14
1.58686e-14
1.61411e-14
1.63865e-14
1.66615e-14
1.69261e-14
1.71763e-14
1.74204e-14
1.76738e-14
1.7928e-14
1.82101e-14
1.84934e-14
1.88014e-14
1.91377e-14
1.9451e-14
1.97724e-14
2.03067e-14
2.07066e-14
2.07603e-14
2.18983e-14
2.2607e-14
2.29684e-14
2.36959e-14
5.23457e-15
5.90178e-15
6.61655e-15
7.15517e-15
7.42965e-15
7.75637e-15
8.37521e-15
8.76629e-15
8.93835e-15
9.27304e-15
9.61832e-15
9.89281e-15
1.014e-14
1.04082e-14
1.06795e-14
1.09065e-14
1.11303e-14
1.13703e-14
1.16164e-14
1.18401e-14
1.20803e-14
1.23359e-14
1.25845e-14
1.28281e-14
1.30789e-14
1.33193e-14
1.35791e-14
1.38483e-14
1.41111e-14
1.43688e-14
1.46172e-14
1.48687e-14
1.5138e-14
1.53862e-14
1.56126e-14
1.58527e-14
1.6098e-14
1.63387e-14
1.65838e-14
1.68291e-14
1.70659e-14
1.73093e-14
1.75695e-14
1.78161e-14
1.80874e-14
1.83645e-14
1.86238e-14
1.89837e-14
1.93544e-14
1.9533e-14
2.00699e-14
2.0764e-14
2.09411e-14
2.09461e-14
2.23947e-14
2.28044e-14
6.17616e-15
6.76469e-15
7.32395e-15
7.69742e-15
8.16226e-15
8.62809e-15
9.0003e-15
9.26838e-15
9.58671e-15
9.90552e-15
1.01654e-14
1.03886e-14
1.0621e-14
1.08584e-14
1.10782e-14
1.12974e-14
1.15214e-14
1.17323e-14
1.19404e-14
1.21599e-14
1.23767e-14
1.25795e-14
1.2785e-14
1.29975e-14
1.32158e-14
1.34322e-14
1.36532e-14
1.38726e-14
1.40972e-14
1.43215e-14
1.45268e-14
1.47256e-14
1.49366e-14
1.51455e-14
1.53502e-14
1.55632e-14
1.57887e-14
1.59969e-14
1.62045e-14
1.64234e-14
1.665e-14
1.68752e-14
1.71003e-14
1.73278e-14
1.75724e-14
1.78246e-14
1.80843e-14
1.83746e-14
1.8654e-14
1.90444e-14
1.94772e-14
1.95045e-14
2.03004e-14
2.09922e-14
2.13179e-14
2.18052e-14
7.13603e-15
7.47686e-15
8.04389e-15
8.42053e-15
8.91424e-15
9.24994e-15
9.48668e-15
9.75411e-15
1.00848e-14
1.03201e-14
1.05482e-14
1.07775e-14
1.09997e-14
1.12018e-14
1.13926e-14
1.15892e-14
1.17845e-14
1.1972e-14
1.21594e-14
1.23488e-14
1.25338e-14
1.2723e-14
1.29125e-14
1.31039e-14
1.32931e-14
1.34884e-14
1.36801e-14
1.38733e-14
1.40715e-14
1.42664e-14
1.44721e-14
1.46757e-14
1.48579e-14
1.50469e-14
1.52496e-14
1.54391e-14
1.56191e-14
1.58062e-14
1.59912e-14
1.6178e-14
1.63639e-14
1.65498e-14
1.67432e-14
1.69481e-14
1.71619e-14
1.73834e-14
1.76014e-14
1.78834e-14
1.81753e-14
1.83758e-14
1.87537e-14
1.92111e-14
1.94938e-14
1.94589e-14
2.0494e-14
2.08321e-14
8.15344e-15
8.47655e-15
9.05533e-15
9.33303e-15
9.65433e-15
9.84383e-15
1.01479e-14
1.04335e-14
1.06563e-14
1.08692e-14
1.10735e-14
1.12488e-14
1.14431e-14
1.16275e-14
1.17944e-14
1.19582e-14
1.21172e-14
1.22803e-14
1.24422e-14
1.25952e-14
1.27525e-14
1.2924e-14
1.30829e-14
1.32419e-14
1.34047e-14
1.35674e-14
1.37298e-14
1.38957e-14
1.40606e-14
1.42209e-14
1.4388e-14
1.45543e-14
1.47191e-14
1.48801e-14
1.50402e-14
1.51973e-14
1.53539e-14
1.55132e-14
1.56756e-14
1.58366e-14
1.59976e-14
1.61666e-14
1.63407e-14
1.65118e-14
1.66928e-14
1.68932e-14
1.70995e-14
1.7315e-14
1.75183e-14
1.77975e-14
1.81561e-14
1.8186e-14
1.87149e-14
1.91509e-14
1.94507e-14
1.97954e-14
9.19282e-15
9.48442e-15
9.88838e-15
1.01005e-14
1.03947e-14
1.05719e-14
1.08796e-14
1.10947e-14
1.12291e-14
1.14254e-14
1.16136e-14
1.17634e-14
1.19131e-14
1.20599e-14
1.21941e-14
1.23373e-14
1.24718e-14
1.26016e-14
1.27302e-14
1.28712e-14
1.29973e-14
1.31201e-14
1.3251e-14
1.33857e-14
1.35143e-14
1.36452e-14
1.37802e-14
1.39154e-14
1.40465e-14
1.41817e-14
1.43083e-14
1.44349e-14
1.45655e-14
1.4698e-14
1.48255e-14
1.49518e-14
1.50861e-14
1.52197e-14
1.53502e-14
1.54809e-14
1.56162e-14
1.57567e-14
1.58957e-14
1.60408e-14
1.61978e-14
1.63582e-14
1.65095e-14
1.67129e-14
1.69211e-14
1.70633e-14
1.7347e-14
1.75842e-14
1.79109e-14
1.79109e-14
1.85255e-14
1.8769e-14
1.02382e-14
1.04593e-14
1.07259e-14
1.09464e-14
1.11992e-14
1.13245e-14
1.15401e-14
1.16925e-14
1.18288e-14
1.19829e-14
1.2107e-14
1.22419e-14
1.23626e-14
1.24706e-14
1.25806e-14
1.2692e-14
1.28013e-14
1.29039e-14
1.3005e-14
1.31046e-14
1.32113e-14
1.33081e-14
1.3411e-14
1.35076e-14
1.36079e-14
1.37102e-14
1.38222e-14
1.39293e-14
1.40364e-14
1.41411e-14
1.42391e-14
1.43414e-14
1.44451e-14
1.45462e-14
1.46486e-14
1.47507e-14
1.48519e-14
1.49522e-14
1.50536e-14
1.51576e-14
1.52629e-14
1.53681e-14
1.54764e-14
1.55912e-14
1.57132e-14
1.58337e-14
1.59668e-14
1.61279e-14
1.6248e-14
1.63974e-14
1.67028e-14
1.67187e-14
1.69469e-14
1.72272e-14
1.7516e-14
1.77085e-14
1.13036e-14
1.14744e-14
1.16635e-14
1.18144e-14
1.20055e-14
1.20718e-14
1.22296e-14
1.234e-14
1.24368e-14
1.25513e-14
1.26478e-14
1.27268e-14
1.28067e-14
1.29015e-14
1.29918e-14
1.30584e-14
1.31298e-14
1.32068e-14
1.32863e-14
1.33509e-14
1.34274e-14
1.35026e-14
1.35797e-14
1.36558e-14
1.37399e-14
1.38108e-14
1.38727e-14
1.39286e-14
1.39973e-14
1.40756e-14
1.41598e-14
1.42385e-14
1.43096e-14
1.438e-14
1.44523e-14
1.45313e-14
1.4601e-14
1.46714e-14
1.47461e-14
1.48207e-14
1.48938e-14
1.49737e-14
1.50549e-14
1.51397e-14
1.52272e-14
1.53133e-14
1.54011e-14
1.55095e-14
1.56356e-14
1.57242e-14
1.58465e-14
1.59343e-14
1.62585e-14
1.6246e-14
1.64637e-14
1.6643e-14
1.23732e-14
1.24861e-14
1.26042e-14
1.26854e-14
1.28024e-14
1.28254e-14
1.29432e-14
1.30148e-14
1.30571e-14
1.3116e-14
1.32277e-14
1.32774e-14
1.32791e-14
1.33494e-14
1.33953e-14
1.3436e-14
1.34822e-14
1.35281e-14
1.3572e-14
1.36154e-14
1.36538e-14
1.36996e-14
1.37355e-14
1.37696e-14
1.3806e-14
1.38534e-14
1.3908e-14
1.39719e-14
1.40226e-14
1.40541e-14
1.40874e-14
1.41282e-14
1.41709e-14
1.42176e-14
1.42597e-14
1.4295e-14
1.43408e-14
1.43863e-14
1.44291e-14
1.44721e-14
1.45158e-14
1.45625e-14
1.46088e-14
1.46644e-14
1.46815e-14
1.47402e-14
1.48253e-14
1.49102e-14
1.49402e-14
1.49515e-14
1.52125e-14
1.51935e-14
1.51636e-14
1.52638e-14
1.55383e-14
1.55758e-14
1.3452e-14
1.34967e-14
1.35178e-14
1.3561e-14
1.3617e-14
1.35916e-14
1.36552e-14
1.36813e-14
1.36938e-14
1.37146e-14
1.37461e-14
1.37525e-14
1.376e-14
1.38002e-14
1.3795e-14
1.3809e-14
1.38295e-14
1.38394e-14
1.38476e-14
1.38656e-14
1.38804e-14
1.38934e-14
1.39081e-14
1.39316e-14
1.39441e-14
1.3957e-14
1.3959e-14
1.39616e-14
1.39727e-14
1.3993e-14
1.40094e-14
1.40258e-14
1.40362e-14
1.40479e-14
1.40667e-14
1.40746e-14
1.4092e-14
1.41037e-14
1.41143e-14
1.41308e-14
1.41446e-14
1.41523e-14
1.41584e-14
1.41904e-14
1.41977e-14
1.4215e-14
1.42278e-14
1.42444e-14
1.4292e-14
1.43364e-14
1.43232e-14
1.4192e-14
1.45779e-14
1.44966e-14
1.44058e-14
1.44865e-14
1.45287e-14
1.4516e-14
1.44545e-14
1.44354e-14
1.44423e-14
1.43583e-14
1.43687e-14
1.43425e-14
1.42989e-14
1.42961e-14
1.42598e-14
1.42445e-14
1.4244e-14
1.4202e-14
1.41962e-14
1.41855e-14
1.41668e-14
1.41473e-14
1.41346e-14
1.41211e-14
1.41034e-14
1.40824e-14
1.40716e-14
1.40621e-14
1.40474e-14
1.4026e-14
1.40071e-14
1.3978e-14
1.39573e-14
1.39489e-14
1.39378e-14
1.39193e-14
1.39039e-14
1.38828e-14
1.38677e-14
1.38565e-14
1.38374e-14
1.38176e-14
1.38046e-14
1.37864e-14
1.37699e-14
1.37563e-14
1.37536e-14
1.37135e-14
1.37056e-14
1.36892e-14
1.36602e-14
1.36708e-14
1.36064e-14
1.35129e-14
1.36691e-14
1.36068e-14
1.3424e-14
1.32437e-14
1.35295e-14
1.34194e-14
1.56118e-14
1.55699e-14
1.53813e-14
1.53025e-14
1.52669e-14
1.51216e-14
1.50853e-14
1.50119e-14
1.49285e-14
1.48949e-14
1.47912e-14
1.47281e-14
1.47233e-14
1.46556e-14
1.46099e-14
1.45625e-14
1.45126e-14
1.44703e-14
1.44244e-14
1.43731e-14
1.43259e-14
1.4288e-14
1.42323e-14
1.41732e-14
1.41202e-14
1.40763e-14
1.4046e-14
1.40199e-14
1.3977e-14
1.39215e-14
1.38598e-14
1.38116e-14
1.37691e-14
1.37271e-14
1.36727e-14
1.36295e-14
1.35782e-14
1.35373e-14
1.34912e-14
1.34419e-14
1.33929e-14
1.33492e-14
1.32946e-14
1.32297e-14
1.32208e-14
1.31697e-14
1.30565e-14
1.29935e-14
1.29631e-14
1.29388e-14
1.27687e-14
1.25057e-14
1.28932e-14
1.26746e-14
1.23649e-14
1.23234e-14
1.66801e-14
1.65461e-14
1.63009e-14
1.61824e-14
1.60796e-14
1.58696e-14
1.57925e-14
1.56744e-14
1.55469e-14
1.54625e-14
1.53594e-14
1.52658e-14
1.5185e-14
1.50935e-14
1.50101e-14
1.49281e-14
1.48536e-14
1.47754e-14
1.46997e-14
1.46228e-14
1.45499e-14
1.44737e-14
1.44025e-14
1.43362e-14
1.4268e-14
1.41867e-14
1.40964e-14
1.40024e-14
1.39232e-14
1.38509e-14
1.37831e-14
1.37116e-14
1.36328e-14
1.35556e-14
1.34815e-14
1.3407e-14
1.33317e-14
1.32552e-14
1.31772e-14
1.31015e-14
1.30236e-14
1.29459e-14
1.28614e-14
1.27703e-14
1.2687e-14
1.25934e-14
1.24856e-14
1.24325e-14
1.22702e-14
1.20656e-14
1.21672e-14
1.20229e-14
1.15968e-14
1.13465e-14
1.15202e-14
1.12675e-14
1.77537e-14
1.76004e-14
1.72263e-14
1.70358e-14
1.68914e-14
1.66235e-14
1.64945e-14
1.63317e-14
1.6158e-14
1.60292e-14
1.58953e-14
1.57654e-14
1.56453e-14
1.55274e-14
1.54144e-14
1.53069e-14
1.51994e-14
1.50896e-14
1.49852e-14
1.48812e-14
1.47792e-14
1.46667e-14
1.45631e-14
1.44506e-14
1.43459e-14
1.42368e-14
1.4143e-14
1.40337e-14
1.39344e-14
1.38193e-14
1.37177e-14
1.36013e-14
1.3501e-14
1.33876e-14
1.32928e-14
1.31776e-14
1.30801e-14
1.29663e-14
1.28689e-14
1.27539e-14
1.26507e-14
1.25316e-14
1.24289e-14
1.23004e-14
1.21853e-14
1.20663e-14
1.19241e-14
1.17511e-14
1.16584e-14
1.15465e-14
1.12308e-14
1.08572e-14
1.12203e-14
1.0895e-14
1.02976e-14
1.01789e-14
1.88043e-14
1.85486e-14
1.81381e-14
1.78732e-14
1.76844e-14
1.7365e-14
1.7184e-14
1.69775e-14
1.67601e-14
1.65988e-14
1.64235e-14
1.62615e-14
1.61022e-14
1.5965e-14
1.58125e-14
1.56848e-14
1.55329e-14
1.54139e-14
1.52626e-14
1.51462e-14
1.49909e-14
1.48795e-14
1.47248e-14
1.46099e-14
1.44499e-14
1.43372e-14
1.41745e-14
1.40639e-14
1.38995e-14
1.37874e-14
1.36191e-14
1.35082e-14
1.3348e-14
1.32394e-14
1.30761e-14
1.29688e-14
1.28102e-14
1.27005e-14
1.25412e-14
1.24284e-14
1.22674e-14
1.2151e-14
1.19871e-14
1.18517e-14
1.16859e-14
1.15279e-14
1.13381e-14
1.12367e-14
1.09596e-14
1.06201e-14
1.0729e-14
1.04756e-14
9.81373e-15
9.44728e-15
9.52695e-15
9.14855e-15
1.98508e-14
1.9561e-14
1.90281e-14
1.8675e-14
1.84431e-14
1.80535e-14
1.78361e-14
1.75874e-14
1.7334e-14
1.71202e-14
1.69237e-14
1.67189e-14
1.65444e-14
1.63589e-14
1.61919e-14
1.60094e-14
1.58565e-14
1.56827e-14
1.55332e-14
1.53569e-14
1.52084e-14
1.50375e-14
1.48827e-14
1.4712e-14
1.45584e-14
1.43859e-14
1.42271e-14
1.40551e-14
1.38931e-14
1.3722e-14
1.3563e-14
1.33984e-14
1.32375e-14
1.30711e-14
1.29089e-14
1.27477e-14
1.25833e-14
1.24247e-14
1.22626e-14
1.21017e-14
1.19326e-14
1.17714e-14
1.15949e-14
1.14194e-14
1.12291e-14
1.10571e-14
1.08409e-14
1.0575e-14
1.03701e-14
1.03128e-14
9.77103e-15
9.14655e-15
9.65428e-15
9.28111e-15
8.29218e-15
8.07679e-15
2.08733e-14
2.05005e-14
1.98932e-14
1.94938e-14
1.92437e-14
1.87676e-14
1.8494e-14
1.82083e-14
1.79187e-14
1.76654e-14
1.74465e-14
1.71957e-14
1.70023e-14
1.6767e-14
1.66088e-14
1.63757e-14
1.62295e-14
1.59792e-14
1.58522e-14
1.55975e-14
1.54813e-14
1.5207e-14
1.51009e-14
1.48197e-14
1.47201e-14
1.44241e-14
1.43325e-14
1.40202e-14
1.39352e-14
1.36222e-14
1.35468e-14
1.32314e-14
1.31617e-14
1.28511e-14
1.27876e-14
1.2464e-14
1.23945e-14
1.20839e-14
1.20092e-14
1.16971e-14
1.16131e-14
1.13021e-14
1.11986e-14
1.09031e-14
1.07904e-14
1.04737e-14
1.02774e-14
1.00334e-14
9.82903e-15
9.20527e-15
9.22067e-15
9.17812e-15
8.19478e-15
7.45204e-15
7.65608e-15
7.09293e-15
2.18693e-14
2.13891e-14
2.07911e-14
2.01746e-14
1.99234e-14
1.94689e-14
1.91039e-14
1.88043e-14
1.84706e-14
1.8218e-14
1.79165e-14
1.76983e-14
1.74303e-14
1.72408e-14
1.69543e-14
1.67825e-14
1.65067e-14
1.63622e-14
1.60629e-14
1.59296e-14
1.56189e-14
1.54996e-14
1.51822e-14
1.50587e-14
1.47325e-14
1.46122e-14
1.42763e-14
1.41568e-14
1.38112e-14
1.36934e-14
1.33415e-14
1.32221e-14
1.28756e-14
1.27565e-14
1.24222e-14
1.2327e-14
1.20127e-14
1.18869e-14
1.15768e-14
1.146e-14
1.11618e-14
1.10315e-14
1.07303e-14
1.05566e-14
1.02359e-14
1.00381e-14
9.7606e-15
9.49392e-15
9.08761e-15
8.98931e-15
8.59715e-15
7.50997e-15
8.01118e-15
7.6734e-15
6.4561e-15
6.05975e-15
2.2836e-14
2.22853e-14
2.15369e-14
2.0932e-14
2.05527e-14
2.00355e-14
1.96532e-14
1.93052e-14
1.89293e-14
1.86439e-14
1.83302e-14
1.80772e-14
1.77613e-14
1.75536e-14
1.7245e-14
1.70728e-14
1.67395e-14
1.65949e-14
1.62486e-14
1.61265e-14
1.57527e-14
1.56556e-14
1.52477e-14
1.51781e-14
1.47486e-14
1.46967e-14
1.42431e-14
1.42054e-14
1.37264e-14
1.37038e-14
1.321e-14
1.32062e-14
1.27172e-14
1.27268e-14
1.22279e-14
1.22446e-14
1.17308e-14
1.17602e-14
1.12872e-14
1.129e-14
1.07975e-14
1.07995e-14
1.03296e-14
1.02792e-14
9.83444e-15
9.75919e-15
9.24726e-15
9.0922e-15
8.67585e-15
8.30856e-15
7.74512e-15
7.79108e-15
7.04058e-15
5.92472e-15
5.77051e-15
5.12947e-15
2.37812e-14
2.32654e-14
2.22617e-14
2.18157e-14
2.12731e-14
2.06726e-14
2.03352e-14
1.98883e-14
1.95284e-14
1.91676e-14
1.89128e-14
1.85344e-14
1.83358e-14
1.79677e-14
1.78148e-14
1.74172e-14
1.73048e-14
1.68606e-14
1.67927e-14
1.62991e-14
1.62712e-14
1.57306e-14
1.57333e-14
1.51558e-14
1.51794e-14
1.45693e-14
1.46017e-14
1.3953e-14
1.40182e-14
1.33516e-14
1.34511e-14
1.28028e-14
1.29157e-14
1.22577e-14
1.23598e-14
1.16747e-14
1.17822e-14
1.11512e-14
1.11847e-14
1.05687e-14
1.06189e-14
1.0018e-14
1.00275e-14
9.48039e-15
9.44873e-15
8.91197e-15
8.77908e-15
8.30294e-15
8.08946e-15
7.54169e-15
7.32208e-15
6.49144e-15
5.97443e-15
6.08864e-15
4.63088e-15
4.15796e-15
2.46618e-14
2.39767e-14
2.26668e-14
2.22868e-14
2.17525e-14
2.11581e-14
2.07649e-14
2.03443e-14
1.99505e-14
1.96063e-14
1.9273e-14
1.89472e-14
1.86581e-14
1.8337e-14
1.80478e-14
1.77305e-14
1.74732e-14
1.714e-14
1.68923e-14
1.65492e-14
1.63103e-14
1.59583e-14
1.57289e-14
1.53437e-14
1.51393e-14
1.47567e-14
1.45496e-14
1.41098e-14
1.38781e-14
1.34113e-14
1.31689e-14
1.26757e-14
1.24512e-14
1.20133e-14
1.18753e-14
1.14849e-14
1.1356e-14
1.08886e-14
1.08053e-14
1.04388e-14
1.0339e-14
9.91326e-15
9.76729e-15
9.3245e-15
9.14802e-15
8.70844e-15
8.52265e-15
8.05668e-15
7.74836e-15
7.18431e-15
6.9636e-15
6.32812e-15
5.80229e-15
5.10765e-15
4.01705e-15
3.3021e-15
2.55105e-14
2.4845e-14
2.36764e-14
2.29138e-14
2.23514e-14
2.16707e-14
2.11473e-14
2.07669e-14
2.03037e-14
1.9978e-14
1.95665e-14
1.93121e-14
1.88976e-14
1.87105e-14
1.82726e-14
1.8133e-14
1.7647e-14
1.75548e-14
1.70041e-14
1.69636e-14
1.63386e-14
1.63334e-14
1.56513e-14
1.57177e-14
1.50174e-14
1.51371e-14
1.43249e-14
1.43834e-14
1.35055e-14
1.36201e-14
1.27947e-14
1.31222e-14
1.23729e-14
1.25899e-14
1.16823e-14
1.18618e-14
1.09795e-14
1.11825e-14
1.03826e-14
1.04282e-14
9.5916e-15
9.75285e-15
9.02856e-15
9.1017e-15
8.43398e-15
8.43583e-15
7.74609e-15
7.63762e-15
7.05323e-15
6.802e-15
6.06506e-15
5.47891e-15
5.07294e-15
4.24098e-15
3.13601e-15
2.45094e-15
2.6343e-14
2.53784e-14
2.4144e-14
2.33007e-14
2.27517e-14
2.22127e-14
2.17318e-14
2.12788e-14
2.0884e-14
2.05138e-14
2.01766e-14
1.98245e-14
1.95057e-14
1.9163e-14
1.88582e-14
1.85062e-14
1.8194e-14
1.7835e-14
1.75181e-14
1.71382e-14
1.68173e-14
1.64271e-14
1.60779e-14
1.5613e-14
1.52231e-14
1.47951e-14
1.44438e-14
1.40857e-14
1.38979e-14
1.35293e-14
1.31689e-14
1.26849e-14
1.22654e-14
1.17933e-14
1.14707e-14
1.10762e-14
1.07796e-14
1.03948e-14
1.00739e-14
9.75193e-15
9.48818e-15
9.13126e-15
8.81431e-15
8.47435e-15
8.16088e-15
7.81115e-15
7.46816e-15
7.107e-15
6.70492e-15
6.25391e-15
5.78875e-15
5.24493e-15
4.64498e-15
3.7997e-15
2.62583e-15
1.62363e-15
2.70098e-14
2.56245e-14
2.44312e-14
2.36626e-14
2.30267e-14
2.24682e-14
2.19863e-14
2.1555e-14
2.11636e-14
2.07943e-14
2.04458e-14
2.01033e-14
1.97729e-14
1.94361e-14
1.91066e-14
1.87631e-14
1.84259e-14
1.80689e-14
1.77192e-14
1.73451e-14
1.69817e-14
1.65901e-14
1.62303e-14
1.59434e-14
1.57421e-14
1.54478e-14
1.50043e-14
1.4334e-14
1.36099e-14
1.29413e-14
1.25045e-14
1.22103e-14
1.20131e-14
1.17215e-14
1.1368e-14
1.09699e-14
1.06138e-14
1.02336e-14
9.88946e-15
9.52758e-15
9.19765e-15
8.84566e-15
8.52429e-15
8.18225e-15
7.85826e-15
7.50962e-15
7.16751e-15
6.7934e-15
6.40449e-15
5.96815e-15
5.49219e-15
4.93336e-15
4.2937e-15
3.52256e-15
2.33057e-15
9.42487e-16
)
;

boundaryField
{
    top
    {
        type            zeroGradient;
    }
    bottom
    {
        type            zeroGradient;
    }
    rotatingWall
    {
        type            zeroGradient;
    }
    wall
    {
        type            zeroGradient;
    }
    frontAndBack
    {
        type            empty;
    }
}


// ************************************************************************* //
