/*--------------------------------*- C++ -*----------------------------------*\
| =========                 |                                                 |
| \\      /  F ield         | OpenFOAM: The Open Source CFD Toolbox           |
|  \\    /   O peration     | Version:  5.0                                   |
|   \\  /    A nd           | Web:      www.OpenFOAM.org                      |
|    \\/     M anipulation  |                                                 |
\*---------------------------------------------------------------------------*/
FoamFile
{
    version     2.0;
    format      ascii;
    class       surfaceScalarField;
    location    "152";
    object      phi;
}
// * * * * * * * * * * * * * * * * * * * * * * * * * * * * * * * * * * * * * //

dimensions      [0 3 -1 0 0 0 0];

internalField   nonuniform List<scalar> 
3052
(
2.98583e-21
-1.49946e-20
8.58716e-22
-3.59982e-21
1.09321e-19
-1.14032e-19
1.96093e-19
-9.39125e-20
2.70599e-19
-7.91647e-20
3.7973e-19
-1.13648e-19
4.94684e-19
-1.18567e-19
6.07947e-19
-1.16652e-19
7.26168e-19
-1.22203e-19
8.48092e-19
-1.25763e-19
9.69187e-19
-1.24697e-19
1.08839e-18
-1.22625e-19
1.2048e-18
-1.19701e-19
1.317e-18
-1.15301e-19
1.42352e-18
-1.0981e-19
1.52364e-18
-1.03314e-19
1.61592e-18
-9.5504e-20
1.70025e-18
-8.73386e-20
1.77539e-18
-7.81716e-20
1.84134e-18
-6.86742e-20
1.89672e-18
-5.80168e-20
1.94208e-18
-4.74721e-20
1.97691e-18
-3.66951e-20
2.00239e-18
-2.67015e-20
2.01671e-18
-1.54064e-20
2.02132e-18
-5.2469e-21
2.01463e-18
6.04137e-21
1.99804e-18
1.64107e-20
1.97017e-18
2.76271e-20
1.93466e-18
3.56807e-20
1.89014e-18
4.51065e-20
1.83877e-18
5.31084e-20
1.77897e-18
6.22163e-20
1.7134e-18
6.8787e-20
1.64072e-18
7.6081e-20
1.56361e-18
8.09519e-20
1.48027e-18
8.7029e-20
1.39358e-18
9.06208e-20
1.30245e-18
9.49128e-20
1.20869e-18
9.74378e-20
1.11186e-18
9.98801e-20
1.01441e-18
1.00374e-19
9.15549e-19
1.01457e-19
8.17281e-19
1.00959e-19
7.19624e-19
1.00331e-19
6.2432e-19
9.81678e-20
5.31542e-19
9.57441e-20
4.42645e-19
9.19091e-20
3.58048e-19
8.74702e-20
2.7979e-19
8.13743e-20
2.06837e-19
7.52003e-20
1.42962e-19
6.60638e-20
9.1903e-20
5.52401e-20
3.92049e-20
5.24621e-20
1.27112e-20
2.72091e-20
1.27189e-20
5.16994e-20
-7.12325e-20
9.25702e-20
-5.33804e-20
9.44556e-20
-1.41736e-19
1.52746e-19
-1.64086e-19
2.56615e-19
-1.97574e-19
3.47239e-19
-2.14551e-19
4.4442e-19
-2.241e-19
5.52924e-19
-2.34676e-19
6.6337e-19
-2.41926e-19
7.73544e-19
-2.4527e-19
8.84918e-19
-2.44771e-19
9.9564e-19
-2.41399e-19
1.10349e-18
-2.3522e-19
1.20687e-18
-2.2692e-19
1.30542e-18
-2.16194e-19
1.39765e-18
-2.03523e-19
1.48346e-18
-1.88724e-19
1.5613e-18
-1.7263e-19
1.63127e-18
-1.54655e-19
1.69204e-18
-1.35816e-19
1.74433e-18
-1.15444e-19
1.78695e-18
-9.48673e-20
1.82097e-18
-7.38775e-20
1.84486e-18
-5.35312e-20
1.85973e-18
-3.19534e-20
1.8636e-18
-1.08134e-20
1.85815e-18
1.09326e-20
1.84249e-18
3.1311e-20
1.81894e-18
5.15642e-20
1.78581e-18
6.9927e-20
1.74575e-18
8.87083e-20
1.69807e-18
1.05794e-19
1.64485e-18
1.227e-19
1.58446e-18
1.37163e-19
1.51872e-18
1.51002e-19
1.44654e-18
1.61991e-19
1.37071e-18
1.72508e-19
1.28999e-18
1.80494e-19
1.20639e-18
1.87567e-19
1.11933e-18
1.92248e-19
1.03046e-18
1.96274e-19
9.38922e-19
1.98147e-19
8.47386e-19
1.99421e-19
7.55738e-19
1.98799e-19
6.65446e-19
1.97307e-19
5.76597e-19
1.93874e-19
4.90542e-19
1.88898e-19
4.07821e-19
1.81642e-19
3.30009e-19
1.72992e-19
2.5617e-19
1.60954e-19
1.89823e-19
1.48865e-19
1.30657e-19
1.33271e-19
7.58741e-20
1.09538e-19
4.51141e-20
9.00103e-20
1.30075e-20
5.69615e-20
2.55958e-20
-1.69493e-20
-5.50742e-20
3.68246e-20
-1.2498e-19
8.53618e-20
-1.96286e-19
1.5102e-19
-2.40421e-19
2.21878e-19
-2.72909e-19
3.06626e-19
-3.01447e-19
3.98636e-19
-3.18209e-19
4.96232e-19
-3.33903e-19
5.97013e-19
-3.44638e-19
6.99331e-19
-3.48748e-19
8.01695e-19
-3.47923e-19
9.02505e-19
-3.43267e-19
1.00098e-18
-3.35258e-19
1.09616e-18
-3.23281e-19
1.18655e-18
-3.07981e-19
1.27155e-18
-2.89562e-19
1.35042e-18
-2.68595e-19
1.4224e-18
-2.4499e-19
1.48684e-18
-2.19589e-19
1.54348e-18
-1.92423e-19
1.59193e-18
-1.64122e-19
1.6321e-18
-1.34697e-19
1.66333e-18
-1.05215e-19
1.68548e-18
-7.52701e-20
1.6987e-18
-4.51098e-20
1.70311e-18
-1.46415e-20
1.69885e-18
1.53142e-20
1.68613e-18
4.4737e-20
1.66517e-18
7.29065e-20
1.63632e-18
9.97313e-20
1.60039e-18
1.25442e-19
1.55754e-18
1.50127e-19
1.50818e-18
1.73061e-19
1.4528e-18
1.93822e-19
1.3922e-18
2.1239e-19
1.3266e-18
2.28956e-19
1.25663e-18
2.4334e-19
1.18276e-18
2.55471e-19
1.10565e-18
2.65387e-19
1.02562e-18
2.73146e-19
9.43498e-19
2.785e-19
8.60095e-19
2.82078e-19
7.76e-19
2.83797e-19
6.91708e-19
2.83595e-19
6.08303e-19
2.81073e-19
5.26478e-19
2.76328e-19
4.47052e-19
2.69135e-19
3.70731e-19
2.59148e-19
2.98509e-19
2.46283e-19
2.31821e-19
2.31185e-19
1.69982e-19
2.10415e-19
1.15271e-19
1.86304e-19
7.19023e-20
1.61088e-19
3.08432e-20
1.23762e-19
6.32311e-21
8.22945e-20
3.19322e-20
-8.04811e-21
-4.93447e-20
3.58415e-20
-1.71531e-19
6.94858e-20
-2.32488e-19
1.24889e-19
-2.9582e-19
1.95732e-19
-3.41985e-19
2.70143e-19
-3.72581e-19
3.53112e-19
-3.97977e-19
4.41816e-19
-4.19348e-19
5.33204e-19
-4.31611e-19
6.25667e-19
-4.36551e-19
7.18511e-19
-4.36821e-19
8.10379e-19
-4.31694e-19
8.99865e-19
-4.21244e-19
9.86151e-19
-4.06143e-19
1.06847e-18
-3.86751e-19
1.14607e-18
-3.63474e-19
1.21811e-18
-3.36753e-19
1.28401e-18
-3.07102e-19
1.34327e-18
-2.7501e-19
1.39532e-18
-2.40959e-19
1.43991e-18
-2.0534e-19
1.4766e-18
-1.68731e-19
1.50523e-18
-1.31531e-19
1.52558e-18
-9.38571e-20
1.53799e-18
-5.58753e-20
1.54242e-18
-1.78947e-20
1.53937e-18
1.95806e-20
1.52869e-18
5.60379e-20
1.51094e-18
9.10783e-20
1.48565e-18
1.24667e-19
1.45349e-18
1.5649e-19
1.41448e-18
1.86406e-19
1.3697e-18
2.14206e-19
1.31906e-18
2.39919e-19
1.26363e-18
2.63255e-19
1.20341e-18
2.84239e-19
1.13946e-18
3.02507e-19
1.07182e-18
3.18231e-19
1.0014e-18
3.31165e-19
9.28583e-19
3.41451e-19
8.54111e-19
3.49185e-19
7.78225e-19
3.54387e-19
7.01787e-19
3.56801e-19
6.25234e-19
3.56548e-19
5.49308e-19
3.53505e-19
4.74602e-19
3.47581e-19
4.02025e-19
3.38346e-19
3.3264e-19
3.26052e-19
2.67509e-19
3.10291e-19
2.05927e-19
2.89119e-19
1.50463e-19
2.6503e-19
1.01837e-19
2.37604e-19
5.68494e-20
1.96239e-19
3.08734e-20
1.55087e-19
1.05578e-20
1.00224e-19
4.23913e-20
1.87899e-20
-6.87822e-20
2.74576e-20
-1.75697e-19
6.56618e-20
-2.67943e-19
1.11758e-19
-3.38281e-19
1.70256e-19
-3.96178e-19
2.36332e-19
-4.3654e-19
3.09979e-19
-4.69845e-19
3.88499e-19
-4.94855e-19
4.69974e-19
-5.09417e-19
5.53147e-19
-5.16522e-19
6.36203e-19
-5.17117e-19
7.18257e-19
-5.11107e-19
7.98585e-19
-4.9885e-19
8.762e-19
-4.80991e-19
9.50297e-19
-4.57936e-19
1.02024e-18
-4.30427e-19
1.0852e-18
-3.9879e-19
1.14469e-18
-3.63782e-19
1.19819e-18
-3.25847e-19
1.2454e-18
-2.85642e-19
1.28579e-18
-2.43603e-19
1.31914e-18
-2.00305e-19
1.34506e-18
-1.56043e-19
1.36366e-18
-1.11313e-19
1.37493e-18
-6.6258e-20
1.37932e-18
-2.14386e-20
1.37678e-18
2.27083e-20
1.36771e-18
6.56355e-20
1.35204e-18
1.06996e-19
1.33003e-18
1.46395e-19
1.30151e-18
1.83646e-19
1.26691e-18
2.1876e-19
1.22639e-18
2.51524e-19
1.18097e-18
2.81809e-19
1.13095e-18
3.09407e-19
1.07701e-18
3.34278e-19
1.0193e-18
3.56203e-19
9.58568e-19
3.75116e-19
8.9505e-19
3.91079e-19
8.29514e-19
4.03942e-19
7.62506e-19
4.13628e-19
6.94627e-19
4.20055e-19
6.25962e-19
4.23359e-19
5.57212e-19
4.23283e-19
4.88871e-19
4.19798e-19
4.21746e-19
4.12746e-19
3.56657e-19
4.02024e-19
2.94474e-19
3.87017e-19
2.35704e-19
3.67664e-19
1.81831e-19
3.44555e-19
1.32073e-19
3.13995e-19
8.78181e-20
2.7612e-19
5.39321e-20
2.37422e-19
2.05262e-20
1.82256e-19
1.52487e-21
1.20113e-19
4.40074e-20
7.71535e-21
-7.42411e-20
2.64106e-20
-1.89153e-19
5.69706e-20
-2.93138e-19
9.9652e-20
-3.76823e-19
1.48336e-19
-4.44151e-19
2.05359e-19
-4.94114e-19
2.6915e-19
-5.33714e-19
3.37187e-19
-5.62246e-19
4.08159e-19
-5.79823e-19
4.80986e-19
-5.88972e-19
5.54161e-19
-5.9004e-19
6.26759e-19
-5.83381e-19
6.97877e-19
-5.69515e-19
7.66642e-19
-5.49137e-19
8.32438e-19
-5.23009e-19
8.9441e-19
-4.91734e-19
9.52026e-19
-4.5586e-19
1.00473e-18
-4.16055e-19
1.05222e-18
-3.72923e-19
1.09397e-18
-3.27097e-19
1.12983e-18
-2.79168e-19
1.15942e-18
-2.29662e-19
1.18263e-18
-1.79088e-19
1.19928e-18
-1.27917e-19
1.20961e-18
-7.65156e-20
1.21361e-18
-2.54101e-20
1.2116e-18
2.48932e-20
1.20361e-18
7.39145e-20
1.18983e-18
1.21123e-19
1.17025e-18
1.66163e-19
1.14509e-18
2.08779e-19
1.11456e-18
2.48812e-19
1.0792e-18
2.86216e-19
1.03931e-18
3.20795e-19
9.95308e-19
3.52396e-19
9.47578e-19
3.80849e-19
8.96651e-19
4.06098e-19
8.42823e-19
4.27971e-19
7.86723e-19
4.4645e-19
7.28776e-19
4.61463e-19
6.69505e-19
4.72873e-19
6.09189e-19
4.80603e-19
5.48418e-19
4.84577e-19
4.87566e-19
4.84616e-19
4.27285e-19
4.80672e-19
3.68196e-19
4.72583e-19
3.10998e-19
4.59933e-19
2.5637e-19
4.42799e-19
2.05463e-19
4.20927e-19
1.58017e-19
3.92015e-19
1.15096e-19
3.57768e-19
7.76793e-20
3.18776e-19
4.28195e-20
2.65427e-19
2.26123e-20
2.0605e-19
8.16581e-21
1.3446e-19
5.21565e-20
2.99168e-21
-7.5692e-20
2.4273e-20
-2.06335e-19
5.11473e-20
-3.16954e-19
8.57565e-20
-4.10564e-19
1.26211e-19
-4.85073e-19
1.74339e-19
-5.43049e-19
2.28469e-19
-5.88207e-19
2.86611e-19
-6.20654e-19
3.47737e-19
-6.41326e-19
4.10446e-19
-6.52153e-19
4.73642e-19
-6.53708e-19
5.36469e-19
-6.46547e-19
5.98123e-19
-6.31363e-19
6.57926e-19
-6.08995e-19
7.15123e-19
-5.80242e-19
7.69041e-19
-5.457e-19
8.19149e-19
-5.06095e-19
8.65035e-19
-4.62081e-19
9.06288e-19
-4.14404e-19
9.42657e-19
-3.63631e-19
9.73862e-19
-3.10489e-19
9.99696e-19
-2.55566e-19
1.01996e-18
-1.99471e-19
1.0346e-18
-1.42645e-19
1.04364e-18
-8.56975e-20
1.04725e-18
-2.90612e-20
1.04554e-18
2.66231e-20
1.03872e-18
8.08927e-20
1.0268e-18
1.33259e-19
1.00993e-18
1.83361e-19
9.88142e-19
2.30796e-19
9.61785e-19
2.75438e-19
9.31084e-19
3.17071e-19
8.96414e-19
3.55519e-19
8.58092e-19
3.90635e-19
8.16597e-19
4.22324e-19
7.72259e-19
4.50399e-19
7.25483e-19
4.7478e-19
6.76689e-19
4.95346e-19
6.26357e-19
5.12083e-19
5.74852e-19
5.24829e-19
5.22595e-19
5.33502e-19
4.6994e-19
5.379e-19
4.17318e-19
5.37953e-19
3.65239e-19
5.33505e-19
3.14276e-19
5.24382e-19
2.65036e-19
5.10346e-19
2.1828e-19
4.90963e-19
1.74337e-19
4.65655e-19
1.34051e-19
4.34898e-19
9.7654e-20
3.9616e-19
6.509e-20
3.47515e-19
3.98485e-20
2.94289e-19
1.56945e-20
2.26946e-19
2.78995e-21
1.47118e-19
5.49273e-20
5.81309e-21
-8.076e-20
1.98501e-20
-2.19665e-19
4.14835e-20
-3.38154e-19
6.91899e-20
-4.38212e-19
1.03175e-19
-5.19427e-19
1.43783e-19
-5.8382e-19
1.88934e-19
-6.33462e-19
2.37404e-19
-6.69442e-19
2.88679e-19
-6.92911e-19
3.41403e-19
-7.05227e-19
3.94672e-19
-7.07257e-19
4.47654e-19
-6.99744e-19
4.99769e-19
-6.83569e-19
5.5035e-19
-6.59589e-19
5.98741e-19
-6.28604e-19
6.44417e-19
-5.91339e-19
6.86953e-19
-5.48565e-19
7.25903e-19
-5.01031e-19
7.60965e-19
-4.49445e-19
7.91871e-19
-3.94507e-19
8.1839e-19
-3.36975e-19
8.40329e-19
-2.77463e-19
8.5755e-19
-2.16633e-19
8.69976e-19
-1.55093e-19
8.77672e-19
-9.34378e-20
8.8074e-19
-3.22162e-20
8.7931e-19
2.80285e-20
8.73452e-19
8.67538e-20
8.63329e-19
1.43514e-19
8.4897e-19
1.97862e-19
8.30533e-19
2.49465e-19
8.08133e-19
2.97992e-19
7.8205e-19
3.43246e-19
7.52567e-19
3.85006e-19
7.2006e-19
4.23161e-19
6.84838e-19
4.57518e-19
6.4726e-19
4.87952e-19
6.07628e-19
5.14363e-19
5.66301e-19
5.36657e-19
5.23662e-19
5.54735e-19
4.80099e-19
5.68489e-19
4.35919e-19
5.77767e-19
3.91453e-19
5.82458e-19
3.47058e-19
5.82419e-19
3.03179e-19
5.77492e-19
2.60385e-19
5.6744e-19
2.1927e-19
5.51926e-19
1.80245e-19
5.30689e-19
1.43915e-19
5.03388e-19
1.10725e-19
4.68434e-19
8.07077e-20
4.25928e-19
5.41205e-20
3.76455e-19
2.97687e-20
3.13813e-19
1.48883e-20
2.41321e-19
4.6547e-21
1.56532e-19
5.95356e-20
5.34598e-21
-8.63146e-20
1.51081e-20
-2.29106e-19
3.20551e-20
-3.54791e-19
5.43147e-20
-4.60373e-19
8.22307e-20
-5.47215e-19
1.14814e-19
-6.16456e-19
1.50923e-19
-6.69888e-19
1.9002e-19
-7.08793e-19
2.31313e-19
-7.34518e-19
2.73956e-19
-7.48166e-19
3.17244e-19
-7.50779e-19
3.60496e-19
-7.43125e-19
4.03094e-19
-7.26235e-19
4.44415e-19
-7.00984e-19
4.84007e-19
-6.68221e-19
5.21432e-19
-6.28747e-19
5.56267e-19
-5.83383e-19
5.88196e-19
-5.32926e-19
6.16935e-19
-4.78158e-19
6.42267e-19
-4.19835e-19
6.63976e-19
-3.58673e-19
6.81925e-19
-2.95413e-19
6.95968e-19
-2.30755e-19
7.06104e-19
-1.65361e-19
7.12315e-19
-9.98334e-20
7.14732e-19
-3.4778e-20
7.13428e-19
2.92483e-20
7.0853e-19
9.17178e-20
7.00069e-19
1.52088e-19
6.88163e-19
2.09951e-19
6.72908e-19
2.64864e-19
6.54452e-19
3.16559e-19
6.32967e-19
3.64758e-19
6.08752e-19
4.09252e-19
5.82069e-19
4.49841e-19
5.53186e-19
4.86395e-19
5.22345e-19
5.18756e-19
4.8988e-19
5.46814e-19
4.56059e-19
5.70467e-19
4.21204e-19
5.89619e-19
3.85584e-19
6.04119e-19
3.4952e-19
6.13865e-19
3.1328e-19
6.18724e-19
2.77182e-19
6.18536e-19
2.41623e-19
6.13112e-19
2.07078e-19
6.02239e-19
1.74037e-19
5.85565e-19
1.42969e-19
5.62656e-19
1.13997e-19
5.32838e-19
8.75965e-20
4.95935e-19
6.4132e-20
4.50863e-19
4.27845e-20
3.95176e-19
2.53385e-20
3.30913e-19
1.02226e-20
2.54821e-19
1.33288e-21
1.64243e-19
6.08277e-20
2.62661e-21
-8.86736e-20
1.08071e-20
-2.36719e-19
2.39304e-20
-3.6732e-19
4.13312e-20
-4.77299e-19
6.24375e-20
-5.68216e-19
8.67704e-20
-6.41032e-19
1.14114e-19
-6.97524e-19
1.43952e-19
-7.38969e-19
1.75607e-19
-7.66526e-19
2.08506e-19
-7.81331e-19
2.41946e-19
-7.8441e-19
2.75461e-19
-7.76768e-19
3.08528e-19
-7.59451e-19
3.40687e-19
-7.33257e-19
3.71488e-19
-6.99139e-19
4.00623e-19
-6.57968e-19
4.27745e-19
-6.10581e-19
4.52631e-19
-5.57871e-19
4.75008e-19
-5.006e-19
4.94709e-19
-4.39604e-19
5.11572e-19
-3.75623e-19
5.2548e-19
-3.0949e-19
5.36324e-19
-2.4182e-19
5.4405e-19
-1.73385e-19
5.48706e-19
-1.04788e-19
5.50388e-19
-3.66923e-20
5.49204e-19
3.03709e-20
5.45227e-19
9.57933e-20
5.38482e-19
1.59053e-19
5.29013e-19
2.19644e-19
5.16879e-19
2.7717e-19
5.02227e-19
3.31287e-19
4.85295e-19
3.81753e-19
4.66246e-19
4.28339e-19
4.45283e-19
4.70848e-19
4.22596e-19
5.09095e-19
3.9846e-19
5.42936e-19
3.73085e-19
5.72261e-19
3.46719e-19
5.96947e-19
3.19574e-19
6.16871e-19
2.91906e-19
6.31927e-19
2.63964e-19
6.41971e-19
2.35979e-19
6.46884e-19
2.08196e-19
6.4653e-19
1.80954e-19
6.40669e-19
1.54649e-19
6.29019e-19
1.29728e-19
6.1125e-19
1.06341e-19
5.86916e-19
8.47569e-20
5.55656e-19
6.52884e-20
5.16409e-19
4.78165e-20
4.68123e-19
3.2236e-20
4.11609e-19
1.82018e-20
3.43507e-19
7.93468e-21
2.62454e-19
2.44131e-21
1.69844e-19
6.3262e-20
1.58412e-21
-9.00891e-20
7.54693e-21
-2.41826e-19
1.65708e-20
-3.75607e-19
2.8468e-20
-4.88731e-19
4.27481e-20
-5.82498e-19
5.95109e-20
-6.57996e-19
7.85622e-20
-7.16822e-19
9.94693e-20
-7.60129e-19
1.21776e-19
-7.89025e-19
1.45057e-19
-8.04782e-19
1.68859e-19
-8.08304e-19
1.92794e-19
-8.00802e-19
2.16426e-19
-7.83177e-19
2.39449e-19
-7.56379e-19
2.6156e-19
-7.21323e-19
2.8246e-19
-6.78941e-19
3.01927e-19
-6.30112e-19
3.19747e-19
-5.75761e-19
3.35779e-19
-5.1669e-19
3.49872e-19
-4.53751e-19
3.61896e-19
-3.87761e-19
3.71726e-19
-3.19492e-19
3.7933e-19
-2.49736e-19
3.84705e-19
-1.7914e-19
3.87878e-19
-1.08348e-19
3.889e-19
-3.79359e-20
3.8783e-19
3.14592e-20
3.84666e-19
9.91575e-20
3.79444e-19
1.64503e-19
3.72275e-19
2.27004e-19
3.63218e-19
2.86335e-19
3.52391e-19
3.42187e-19
3.39911e-19
3.94284e-19
3.2592e-19
4.42364e-19
3.10565e-19
4.86201e-19
2.94046e-19
5.25627e-19
2.76528e-19
5.60495e-19
2.58193e-19
5.90677e-19
2.39191e-19
6.16031e-19
2.19708e-19
6.36464e-19
1.99919e-19
6.5184e-19
1.80026e-19
6.62004e-19
1.60234e-19
6.66854e-19
1.40703e-19
6.66294e-19
1.21682e-19
6.59969e-19
1.03487e-19
6.47664e-19
8.64182e-20
6.29034e-19
7.07304e-20
6.03673e-19
5.63025e-20
5.70759e-19
4.33345e-20
5.2993e-19
3.22711e-20
4.81027e-19
2.17213e-20
4.21228e-19
1.20376e-20
3.50286e-19
5.7822e-21
2.69597e-19
1.27235e-21
1.72593e-19
6.44496e-20
8.11121e-22
-9.05948e-20
4.2041e-21
-2.44622e-19
9.30072e-21
-3.80017e-19
1.59001e-20
-4.94967e-19
2.38767e-20
-5.90395e-19
3.33933e-20
-6.67617e-19
4.43743e-20
-7.27943e-19
5.6615e-20
-7.72469e-19
6.98901e-20
-8.02391e-19
8.37921e-20
-8.18726e-19
9.81057e-20
-8.22676e-19
1.1261e-19
-8.15372e-19
1.27007e-19
-7.97625e-19
1.41041e-19
-7.70457e-19
1.54552e-19
-7.34863e-19
1.67327e-19
-6.9176e-19
1.79227e-19
-6.42085e-19
1.90086e-19
-5.86689e-19
1.99834e-19
-5.2649e-19
2.0834e-19
-4.62317e-19
2.15554e-19
-3.95079e-19
2.21372e-19
-3.25519e-19
2.2582e-19
-2.54416e-19
2.28845e-19
-1.8239e-19
2.30512e-19
-1.10102e-19
2.30807e-19
-3.81789e-20
2.29773e-19
3.26073e-20
2.27392e-19
1.016e-19
2.23731e-19
1.68193e-19
2.18806e-19
2.31913e-19
2.12742e-19
2.92397e-19
2.05623e-19
3.49319e-19
1.97521e-19
4.02372e-19
1.88532e-19
4.51325e-19
1.78743e-19
4.95966e-19
1.68302e-19
5.36066e-19
1.57307e-19
5.71513e-19
1.45888e-19
6.02127e-19
1.34161e-19
6.27811e-19
1.22236e-19
6.4844e-19
1.10231e-19
6.6391e-19
9.8268e-20
6.74066e-19
8.64951e-20
6.78767e-19
7.50623e-20
6.77866e-19
6.40841e-20
6.71157e-19
5.38261e-20
6.58309e-19
4.45439e-20
6.38988e-19
3.61696e-20
6.12628e-19
2.87691e-20
5.79038e-19
2.26366e-20
5.37542e-19
1.68074e-20
4.86069e-19
1.18243e-20
4.25731e-19
7.24115e-21
3.55874e-19
1.45008e-21
2.70553e-19
-6.43602e-22
1.74756e-19
6.37873e-20
1.55323e-22
-9.06983e-20
1.07985e-21
-2.44793e-19
2.3835e-21
-3.80676e-19
3.95888e-21
-4.96114e-19
5.94179e-21
-5.9222e-19
8.4622e-21
-6.70176e-19
1.16189e-20
-7.31167e-19
1.53876e-20
-7.76303e-19
1.9715e-20
-8.06761e-19
2.45534e-20
-8.23626e-19
2.98774e-20
-8.28075e-19
3.51789e-20
-8.20759e-19
4.04229e-20
-8.02957e-19
4.56731e-20
-7.75771e-19
5.07658e-20
-7.40041e-19
5.55783e-20
-6.96698e-19
6.00335e-20
-6.46684e-19
6.4074e-20
-5.90867e-19
6.76349e-20
-5.3017e-19
7.06689e-20
-4.65477e-19
7.31029e-20
-3.97635e-19
7.49796e-20
-3.27409e-19
7.62793e-20
-2.55578e-19
7.70779e-20
-1.82852e-19
7.73302e-20
-1.09928e-19
7.697e-20
-3.75079e-20
7.59005e-20
3.36982e-20
7.41746e-20
1.03081e-19
7.19055e-20
1.70085e-19
6.92226e-20
2.34267e-19
6.61832e-20
2.9523e-19
6.27601e-20
3.52612e-19
5.89624e-20
4.06091e-19
5.48471e-20
4.55386e-19
5.0511e-20
5.0028e-19
4.60174e-20
5.40574e-19
4.14247e-20
5.76142e-19
3.67806e-20
6.06819e-19
3.21656e-20
6.32477e-19
2.76655e-20
6.53003e-19
2.33647e-20
6.68302e-19
1.91914e-20
6.78382e-19
1.51058e-20
6.83005e-19
1.14993e-20
6.81653e-19
8.42133e-21
6.74469e-19
5.92951e-21
6.6117e-19
4.09679e-21
6.4137e-19
3.01224e-21
6.14715e-19
2.47859e-21
5.80291e-19
2.22256e-21
5.37539e-19
2.9314e-21
4.87423e-19
2.34609e-21
4.26496e-19
-2.65194e-23
3.5287e-19
1.57881e-21
2.71087e-19
8.64359e-22
1.72874e-19
6.45138e-20
-6.6849e-22
-8.9715e-20
-2.05058e-21
-2.42905e-19
-4.21614e-21
-3.77869e-19
-7.26231e-21
-4.92473e-19
-1.11308e-20
-5.88164e-19
-1.53757e-20
-6.65925e-19
-1.9753e-20
-7.26848e-19
-2.40372e-20
-7.72074e-19
-2.81891e-20
-8.02669e-19
-3.2241e-20
-8.19648e-19
-3.62627e-20
-8.24158e-19
-3.99398e-20
-8.17191e-19
-4.33041e-20
-7.99706e-19
-4.65212e-20
-7.72674e-19
-4.961e-20
-7.37112e-19
-5.25357e-20
-6.93946e-19
-5.53216e-20
-6.44077e-19
-5.79542e-20
-5.88407e-19
-6.04605e-20
-5.27848e-19
-6.28089e-20
-4.63263e-19
-6.49986e-20
-3.95448e-19
-6.69536e-20
-3.2526e-19
-6.86126e-20
-2.53489e-19
-6.99329e-20
-1.80882e-19
-7.10879e-20
-1.08187e-19
-7.21703e-20
-3.61419e-20
-7.32738e-20
3.46343e-20
-7.42927e-20
1.03618e-19
-7.51259e-20
1.70323e-19
-7.56179e-20
2.34316e-19
-7.57762e-20
2.9511e-19
-7.56169e-20
3.52316e-19
-7.5191e-20
4.05574e-19
-7.44976e-20
4.54648e-19
-7.34948e-20
4.99275e-19
-7.21919e-20
5.39323e-19
-7.05604e-20
5.74569e-19
-6.86023e-20
6.04939e-19
-6.63174e-20
6.30257e-19
-6.36864e-20
6.50474e-19
-6.07189e-20
6.65479e-19
-5.72762e-20
6.75122e-19
-5.33282e-20
6.79255e-19
-4.92024e-20
6.77728e-19
-4.48061e-20
6.70299e-19
-3.99455e-20
6.56716e-19
-3.45201e-20
6.36658e-19
-2.87791e-20
6.09482e-19
-2.29244e-20
5.75138e-19
-1.67367e-20
5.33375e-19
-1.14699e-20
4.81184e-19
-6.79718e-21
4.20078e-19
-2.53125e-21
3.5163e-19
-4.13037e-21
2.65931e-19
-2.66911e-21
1.71488e-19
6.18333e-20
-1.30338e-21
-8.83839e-20
-4.69282e-21
-2.38695e-19
-1.02027e-20
-3.71391e-19
-1.80162e-20
-4.84173e-19
-2.74846e-20
-5.78449e-19
-3.82683e-20
-6.55118e-19
-4.99349e-20
-7.15227e-19
-6.21036e-20
-7.59944e-19
-7.45641e-20
-7.90241e-19
-8.7076e-20
-8.07198e-19
-9.95626e-20
-8.11738e-19
-1.11869e-19
-8.04971e-19
-1.23828e-19
-7.87826e-19
-1.35367e-19
-7.61259e-19
-1.4639e-19
-7.26213e-19
-1.56822e-19
-6.83642e-19
-1.66596e-19
-6.3443e-19
-1.75674e-19
-5.79487e-19
-1.83981e-19
-5.19661e-19
-1.91499e-19
-4.55835e-19
-1.98115e-19
-3.88841e-19
-2.03772e-19
-3.195e-19
-2.08364e-19
-2.48565e-19
-2.11993e-19
-1.76899e-19
-2.14661e-19
-1.05218e-19
-2.16519e-19
-3.42518e-20
-2.17546e-19
3.54724e-20
-2.17734e-19
1.03434e-19
-2.16932e-19
1.69233e-19
-2.15168e-19
2.32322e-19
-2.12426e-19
2.92258e-19
-2.08798e-19
3.48578e-19
-2.04267e-19
4.01002e-19
-1.98915e-19
4.49266e-19
-1.92733e-19
4.93148e-19
-1.85804e-19
5.32433e-19
-1.78125e-19
5.6697e-19
-1.69769e-19
5.96628e-19
-1.60735e-19
6.21329e-19
-1.51117e-19
6.40956e-19
-1.40895e-19
6.55409e-19
-1.30168e-19
6.64545e-19
-1.18993e-19
6.68245e-19
-1.07554e-19
6.66415e-19
-9.57869e-20
6.5874e-19
-8.37367e-20
6.44984e-19
-7.14488e-20
6.24841e-19
-5.90345e-20
5.981e-19
-4.68302e-20
5.63779e-19
-3.53018e-20
5.2113e-19
-2.38746e-20
4.71943e-19
-1.53343e-20
4.12715e-19
-1.06696e-20
3.39515e-19
-2.11809e-21
2.60968e-19
2.94729e-22
1.65995e-19
6.19787e-20
-2.58236e-21
-8.54273e-20
-7.46247e-21
-2.32641e-19
-1.62654e-20
-3.61839e-19
-2.82467e-20
-4.71482e-19
-4.31539e-20
-5.63255e-19
-6.02636e-20
-6.37976e-19
-7.89143e-20
-6.96604e-19
-9.86132e-20
-7.40258e-19
-1.18999e-19
-7.69881e-19
-1.39746e-19
-7.8647e-19
-1.60542e-19
-7.90973e-19
-1.81144e-19
-7.84398e-19
-2.01334e-19
-7.67707e-19
-2.20858e-19
-7.41808e-19
-2.39528e-19
-7.07618e-19
-2.57188e-19
-6.66044e-19
-2.73714e-19
-6.1798e-19
-2.8896e-19
-5.64302e-19
-3.02837e-19
-5.05875e-19
-3.15225e-19
-4.43536e-19
-3.2607e-19
-3.78081e-19
-3.35279e-19
-3.10309e-19
-3.4286e-19
-2.41036e-19
-3.48751e-19
-1.71058e-19
-3.52972e-19
-1.01094e-19
-3.55511e-19
-3.18023e-20
-3.56388e-19
3.62785e-20
-3.55578e-19
1.02629e-19
-3.53139e-19
1.66791e-19
-3.49065e-19
2.28255e-19
-3.43466e-19
2.86623e-19
-3.36374e-19
3.41484e-19
-3.27892e-19
3.92532e-19
-3.18008e-19
4.3945e-19
-3.06858e-19
4.8205e-19
-2.94446e-19
5.20096e-19
-2.80935e-19
5.53529e-19
-2.66353e-19
5.82153e-19
-2.50839e-19
6.05916e-19
-2.34454e-19
6.24691e-19
-2.17334e-19
6.38414e-19
-1.99594e-19
6.46934e-19
-1.81425e-19
6.50184e-19
-1.62899e-19
6.47979e-19
-1.44177e-19
6.40134e-19
-1.25314e-19
6.26424e-19
-1.06346e-19
6.06542e-19
-8.77034e-20
5.79803e-19
-6.97737e-20
5.46403e-19
-5.23293e-20
5.06152e-19
-3.71994e-20
4.55437e-19
-2.37576e-20
3.96583e-19
-1.13044e-20
3.32074e-19
-9.0959e-21
2.50345e-19
-4.15479e-21
1.61634e-19
5.78245e-20
-2.40224e-21
-8.26454e-20
-9.91536e-21
-2.24073e-19
-2.17133e-20
-3.48636e-19
-3.81539e-20
-4.54335e-19
-5.8317e-20
-5.4279e-19
-8.14157e-20
-6.14809e-19
-1.06767e-19
-6.71272e-19
-1.33735e-19
-7.1332e-19
-1.61757e-19
-7.41862e-19
-1.90386e-19
-7.5784e-19
-2.19183e-19
-7.62185e-19
-2.47781e-19
-7.55827e-19
-2.75844e-19
-7.39696e-19
-3.03033e-19
-7.14665e-19
-3.29049e-19
-6.81644e-19
-3.53656e-19
-6.41468e-19
-3.76644e-19
-5.95032e-19
-3.97828e-19
-5.43157e-19
-4.17057e-19
-4.8672e-19
-4.3418e-19
-4.26479e-19
-4.49089e-19
-3.6329e-19
-4.6167e-19
-2.97863e-19
-4.71941e-19
-2.31012e-19
-4.79836e-19
-1.634e-19
-4.85377e-19
-9.58268e-20
-4.88458e-19
-2.88367e-20
-4.89131e-19
3.68943e-20
-4.87364e-19
1.00973e-19
-4.83324e-19
1.62836e-19
-4.77069e-19
2.22138e-19
-4.68735e-19
2.7834e-19
-4.58293e-19
3.31178e-19
-4.4591e-19
3.80218e-19
-4.31598e-19
4.25294e-19
-4.15578e-19
4.66108e-19
-3.97891e-19
5.02584e-19
-3.78743e-19
5.34477e-19
-3.58165e-19
5.61765e-19
-3.36413e-19
5.84269e-19
-3.13548e-19
6.02015e-19
-2.89837e-19
6.14809e-19
-2.65371e-19
6.2266e-19
-2.40474e-19
6.25355e-19
-2.15213e-19
6.22856e-19
-1.89859e-19
6.14908e-19
-1.64459e-19
6.01333e-19
-1.39386e-19
5.81762e-19
-1.14704e-19
5.5623e-19
-9.09759e-20
5.23566e-19
-6.89635e-20
4.82873e-19
-4.7951e-20
4.36992e-19
-3.09967e-20
3.81661e-19
-2.04163e-20
3.12014e-19
-5.5606e-21
2.40493e-19
-1.40506e-22
1.52474e-19
5.74808e-20
-3.60711e-21
-7.86106e-20
-1.22627e-20
-2.13328e-19
-2.73572e-20
-3.32493e-19
-4.7644e-20
-4.33113e-19
-7.28166e-20
-5.17113e-19
-1.01802e-19
-5.85691e-19
-1.33659e-19
-6.39374e-19
-1.67612e-19
-6.79313e-19
-2.02976e-19
-7.06421e-19
-2.39173e-19
-7.21591e-19
-2.75638e-19
-7.2565e-19
-3.11914e-19
-7.19531e-19
-3.47506e-19
-7.0408e-19
-3.82025e-19
-6.80166e-19
-4.15049e-19
-6.48591e-19
-4.46291e-19
-6.10207e-19
-4.75426e-19
-5.65832e-19
-5.02297e-19
-5.16315e-19
-5.26585e-19
-4.62404e-19
-5.48217e-19
-4.04919e-19
-5.66925e-19
-3.44575e-19
-5.8279e-19
-2.82172e-19
-5.95542e-19
-2.18391e-19
-6.05308e-19
-1.53941e-19
-6.11855e-19
-8.94442e-20
-6.15387e-19
-2.55157e-20
-6.15714e-19
3.7297e-20
-6.13151e-19
9.84459e-20
-6.07518e-19
1.5743e-19
-5.99166e-19
2.13849e-19
-5.87939e-19
2.67328e-19
-5.74261e-19
3.17525e-19
-5.57973e-19
3.6412e-19
-5.39503e-19
4.06853e-19
-5.18684e-19
4.45509e-19
-4.95999e-19
4.79939e-19
-4.713e-19
5.09983e-19
-4.45088e-19
5.35584e-19
-4.17263e-19
5.56632e-19
-3.88321e-19
5.73082e-19
-3.58201e-19
5.84844e-19
-3.27443e-19
5.91857e-19
-2.9602e-19
5.9402e-19
-2.6445e-19
5.9122e-19
-2.32734e-19
5.83281e-19
-2.01329e-19
5.70068e-19
-1.70145e-19
5.5128e-19
-1.40055e-19
5.26213e-19
-1.11326e-19
4.95203e-19
-8.38732e-20
4.58456e-19
-5.99808e-20
4.1118e-19
-3.86241e-20
3.56679e-19
-1.92741e-20
2.9954e-19
-1.37286e-20
2.24738e-19
-6.27076e-21
1.45133e-19
5.11869e-20
-3.56862e-21
-7.42716e-20
-1.44958e-20
-2.01114e-19
-3.22657e-20
-3.12832e-19
-5.67817e-20
-4.07436e-19
-8.70162e-20
-4.86298e-19
-1.21646e-19
-5.50685e-19
-1.59755e-19
-6.0101e-19
-2.00405e-19
-6.38396e-19
-2.42852e-19
-6.63762e-19
-2.86273e-19
-6.77892e-19
-3.30129e-19
-6.8162e-19
-3.73686e-19
-6.75781e-19
-4.16534e-19
-6.6116e-19
-4.5796e-19
-6.38547e-19
-4.9772e-19
-6.08696e-19
-5.35188e-19
-5.72488e-19
-5.70302e-19
-5.30637e-19
-6.02419e-19
-4.83962e-19
-6.31638e-19
-4.3313e-19
-6.5735e-19
-3.78979e-19
-6.79802e-19
-3.22123e-19
-6.98454e-19
-2.6338e-19
-7.13666e-19
-2.03267e-19
-7.24953e-19
-1.42602e-19
-7.32706e-19
-8.18157e-20
-7.3642e-19
-2.16878e-20
-7.36585e-19
3.744e-20
-7.32786e-19
9.48421e-20
-7.25672e-19
1.50326e-19
-7.14896e-19
2.03246e-19
-7.01141e-19
2.53502e-19
-6.84049e-19
3.00498e-19
-6.64257e-19
3.44223e-19
-6.41437e-19
3.84122e-19
-6.16284e-19
4.20257e-19
-5.88498e-19
4.52199e-19
-5.58784e-19
4.80135e-19
-5.26888e-19
5.03691e-19
-4.93519e-19
5.23071e-19
-4.58495e-19
5.37958e-19
-4.22556e-19
5.4858e-19
-3.85566e-19
5.54632e-19
-3.48219e-19
5.56301e-19
-3.10474e-19
5.53239e-19
-2.72931e-19
5.45541e-19
-2.35582e-19
5.32745e-19
-1.9918e-19
5.14762e-19
-1.63673e-19
4.91584e-19
-1.29754e-19
4.62246e-19
-9.88064e-20
4.25037e-19
-6.92953e-20
3.84553e-19
-4.50742e-20
3.3596e-19
-2.93486e-20
2.72254e-19
-8.58774e-21
2.09798e-19
-7.45889e-22
1.32979e-19
5.02034e-20
-4.64302e-21
-6.91813e-20
-1.65928e-20
-1.86997e-19
-3.76597e-20
-2.90313e-19
-6.59854e-20
-3.78266e-19
-1.00875e-19
-4.50972e-19
-1.4108e-19
-5.10388e-19
-1.85239e-19
-5.56874e-19
-2.3239e-19
-5.91305e-19
-2.81559e-19
-6.14612e-19
-3.31986e-19
-6.27573e-19
-3.82797e-19
-6.30932e-19
-4.33389e-19
-6.25375e-19
-4.83023e-19
-6.11706e-19
-5.31171e-19
-5.90624e-19
-5.77198e-19
-5.62899e-19
-6.20718e-19
-5.29215e-19
-6.61274e-19
-4.90336e-19
-6.98579e-19
-4.46932e-19
-7.32225e-19
-3.99784e-19
-7.62004e-19
-3.49446e-19
-7.87722e-19
-2.96741e-19
-8.09192e-19
-2.42124e-19
-8.26424e-19
-1.86439e-19
-8.39192e-19
-1.30048e-19
-8.47652e-19
-7.37536e-20
-8.51567e-19
-1.79057e-20
-8.51218e-19
3.67753e-20
-8.46403e-19
9.00549e-20
-8.37604e-19
1.41285e-19
-8.2465e-19
1.90388e-19
-8.08155e-19
2.36778e-19
-7.87891e-19
2.80408e-19
-7.64501e-19
3.20669e-19
-7.37688e-19
3.5754e-19
-7.08157e-19
3.90607e-19
-6.75651e-19
4.1997e-19
-6.40948e-19
4.45337e-19
-6.03801e-19
4.66794e-19
-5.64988e-19
4.84172e-19
-5.24345e-19
4.97536e-19
-4.82707e-19
5.06814e-19
-4.39936e-19
5.12093e-19
-3.96878e-19
5.13215e-19
-3.53407e-19
5.10139e-19
-3.10337e-19
5.02645e-19
-2.67611e-19
4.90665e-19
-2.25904e-19
4.74016e-19
-1.85545e-19
4.5183e-19
-1.47914e-19
4.24455e-19
-1.11655e-19
3.93225e-19
-8.03346e-20
3.52035e-19
-5.27306e-20
3.03163e-19
-2.65389e-20
2.56165e-19
-1.76834e-20
1.90717e-19
-7.83684e-21
1.23838e-19
4.23992e-20
-5.01298e-21
-6.36674e-20
-1.88474e-20
-1.71524e-19
-4.28317e-20
-2.65878e-19
-7.51877e-20
-3.45834e-19
-1.14847e-19
-4.12031e-19
-1.60456e-19
-4.65979e-19
-2.10386e-19
-5.08047e-19
-2.63816e-19
-5.39158e-19
-3.19407e-19
-5.60154e-19
-3.7657e-19
-5.71802e-19
-4.33954e-19
-5.74659e-19
-4.91352e-19
-5.69572e-19
-5.47245e-19
-5.57032e-19
-6.01884e-19
-5.37824e-19
-6.53627e-19
-5.12404e-19
-7.03201e-19
-4.81738e-19
-7.4861e-19
-4.46193e-19
-7.91096e-19
-4.06685e-19
-8.28468e-19
-3.63511e-19
-8.62521e-19
-3.1771e-19
-8.9071e-19
-2.69457e-19
-9.15373e-19
-2.19817e-19
-9.33711e-19
-1.68802e-19
-9.48526e-19
-1.175e-19
-9.56772e-19
-6.58849e-20
-9.61592e-19
-1.50611e-20
-9.59715e-19
3.50971e-20
-9.54712e-19
8.34906e-20
-9.43133e-19
1.30473e-19
-9.2894e-19
1.75074e-19
-9.08619e-19
2.17694e-19
-8.86297e-19
2.57305e-19
-8.58307e-19
2.94259e-19
-8.28788e-19
3.27527e-19
-7.93975e-19
3.57632e-19
-7.5808e-19
3.83824e-19
-7.17504e-19
4.06754e-19
-6.76414e-19
4.25836e-19
-6.31406e-19
4.41436e-19
-5.86438e-19
4.53058e-19
-5.3835e-19
4.61271e-19
-4.90977e-19
4.65671e-19
-4.41553e-19
4.66578e-19
-3.93544e-19
4.63545e-19
-3.44536e-19
4.56694e-19
-2.97456e-19
4.45518e-19
-2.50544e-19
4.2989e-19
-2.06445e-19
4.10037e-19
-1.63198e-19
3.85576e-19
-1.24757e-19
3.53761e-19
-8.88992e-20
3.19111e-19
-5.77021e-20
2.80669e-19
-3.73914e-20
2.25759e-19
-1.16689e-20
1.73811e-19
-3.61667e-22
1.10363e-19
4.19681e-20
-4.90984e-21
-5.80413e-20
-2.15639e-20
-1.54982e-19
-4.80582e-20
-2.39501e-19
-8.45995e-20
-3.1057e-19
-1.28869e-19
-3.69458e-19
-1.79599e-19
-4.16671e-19
-2.35466e-19
-4.53847e-19
-2.94698e-19
-4.81171e-19
-3.56793e-19
-4.99607e-19
-4.20001e-19
-5.09644e-19
-4.84159e-19
-5.12214e-19
-5.47352e-19
-5.07411e-19
-6.09981e-19
-4.96344e-19
-6.69949e-19
-4.78974e-19
-7.28147e-19
-4.56631e-19
-7.82141e-19
-4.28994e-19
-8.33453e-19