/*--------------------------------*- C++ -*----------------------------------*\
| =========                 |                                                 |
| \\      /  F ield         | OpenFOAM: The Open Source CFD Toolbox           |
|  \\    /   O peration     | Version:  5.0                                   |
|   \\  /    A nd           | Web:      www.OpenFOAM.org                      |
|    \\/     M anipulation  |                                                 |
\*---------------------------------------------------------------------------*/
FoamFile
{
    version     2.0;
    format      ascii;
    class       volVectorField;
    location    "110";
    object      U;
}
// * * * * * * * * * * * * * * * * * * * * * * * * * * * * * * * * * * * * * //

dimensions      [0 1 -1 0 0 0 0];

internalField   nonuniform List<vector> 
7000
(
(0.00652848 -0.000677643 -0.0255289)
(0.0194967 -0.0011453 -0.00693726)
(0.0241766 -0.00120792 -0.0021446)
(0.0235172 -0.000972399 -0.000620126)
(0.0220585 -0.000651788 0.000226592)
(0.0207779 -0.00029789 0.000743284)
(0.0190585 0.00012527 0.00105019)
(0.0164815 0.000590372 0.00128608)
(0.0130321 0.000934187 0.00152706)
(0.00881687 0.000950494 0.00173466)
(0.00389183 0.000254184 0.00188423)
(-0.000633521 -0.00167734 0.00201158)
(-0.00137728 -0.00399024 0.00216903)
(-0.000720296 -0.0043521 0.0018722)
(0.00654498 -0.00146235 -0.0277879)
(0.0203155 -0.00220892 -0.00945092)
(0.02598 -0.00222397 -0.00421683)
(0.0266292 -0.00205709 -0.0023648)
(0.0265486 -0.00178719 -0.00127108)
(0.0265706 -0.00142443 -0.000482136)
(0.0262383 -0.000963535 0.000110001)
(0.0253649 -0.000405268 0.000615943)
(0.0239696 0.000204697 0.00109824)
(0.0219652 0.00074887 0.00154899)
(0.0191485 0.000883769 0.00194535)
(0.0154235 5.79713e-05 0.00226958)
(0.0103565 -0.00259221 0.00264117)
(0.00385048 -0.00535074 0.00266433)
(0.00655688 -0.00106063 -0.0276605)
(0.0204278 -0.0016775 -0.00933369)
(0.0260381 -0.00191359 -0.00418902)
(0.0265969 -0.00202971 -0.00242557)
(0.0265713 -0.00201343 -0.00142195)
(0.0267305 -0.00187267 -0.00071518)
(0.0265859 -0.00163052 -0.000193349)
(0.0259306 -0.00130849 0.000262275)
(0.024789 -0.000930362 0.000719397)
(0.0231221 -0.00060073 0.001205)
(0.0207272 -0.000575008 0.00172439)
(0.0172467 -0.00115269 0.00224761)
(0.0122624 -0.00250771 0.00280135)
(0.00487126 -0.00332491 0.00288308)
(0.00653862 -0.00112054 -0.0276278)
(0.0204 -0.00187542 -0.00926417)
(0.0259966 -0.00221374 -0.00411556)
(0.0265688 -0.00236754 -0.00236713)
(0.0265666 -0.00238162 -0.00138882)
(0.0267661 -0.00229222 -0.000735018)
(0.0266448 -0.00212473 -0.000276238)
(0.0259945 -0.00189147 0.000128857)
(0.0248191 -0.00160237 0.000557935)
(0.0230339 -0.0013098 0.00105953)
(0.0204229 -0.00112265 0.00165859)
(0.01666 -0.00117804 0.00230622)
(0.0114279 -0.00156484 0.00295512)
(0.0040908 -0.00152608 0.00300121)
(0.00652974 -0.00111668 -0.0276284)
(0.0203598 -0.00186487 -0.00924716)
(0.0259347 -0.0021954 -0.00409718)
(0.0264985 -0.00234328 -0.00236137)
(0.0264887 -0.00237359 -0.00139924)
(0.0267061 -0.00232204 -0.000778984)
(0.0266036 -0.00220923 -0.000357872)
(0.02597 -0.00203677 1.33763e-05)
(0.0247967 -0.00180573 0.000427795)
(0.0229586 -0.00153875 0.000951349)
(0.0202019 -0.00129695 0.00161991)
(0.0162032 -0.0011689 0.00236537)
(0.010754 -0.00117809 0.003065)
(0.00361979 -0.000780397 0.00306912)
(0.00650828 -0.00105428 -0.0276109)
(0.0203063 -0.00176258 -0.00922203)
(0.0258602 -0.00208569 -0.00407133)
(0.0264253 -0.00223497 -0.00234336)
(0.026426 -0.0022749 -0.00139218)
(0.0266624 -0.00224236 -0.000787572)
(0.0265899 -0.00215473 -0.000389935)
(0.0259873 -0.00201315 -4.42118e-05)
(0.0248371 -0.00182039 0.000355616)
(0.0229937 -0.00158726 0.000887979)
(0.0201747 -0.00135107 0.00159622)
(0.0160569 -0.00116298 0.00239915)
(0.0104813 -0.00102696 0.00312677)
(0.00340562 -0.000541013 0.00310824)
(0.00648316 -0.000982729 -0.0275928)
(0.0202526 -0.001649 -0.00920087)
(0.0257992 -0.00195149 -0.00405023)
(0.0263776 -0.00208318 -0.00232695)
(0.0263967 -0.00211256 -0.00138455)
(0.0266472 -0.00207954 -0.000789385)
(0.0266029 -0.00199898 -0.000405868)
(0.0260321 -0.00187419 -7.44544e-05)
(0.024909 -0.00170963 0.000315288)
(0.0230758 -0.0015137 0.000849115)
(0.0202333 -0.00130938 0.00157736)
(0.0160548 -0.0011264 0.00241172)
(0.010404 -0.000969979 0.0031587)
(0.00332254 -0.000508994 0.00313398)
(0.00646373 -0.000904055 -0.0275873)
(0.0202054 -0.00152334 -0.00919383)
(0.0257509 -0.00179559 -0.00404135)
(0.0263458 -0.00190204 -0.00232037)
(0.0263816 -0.00191629 -0.00138233)
(0.026644 -0.00187863 -0.000793044)
(0.0266213 -0.00180136 -0.000418609)
(0.0260761 -0.00168935 -9.49101e-05)
(0.024977 -0.0015492 0.000291341)
(0.0231569 -0.00138923 0.000826294)
(0.020305 -0.00122558 0.00156367)
(0.0160917 -0.00107634 0.00241663)
(0.010391 -0.000951486 0.00317686)
(0.00327409 -0.000560372 0.00315137)
(0.00644875 -0.000805156 -0.0275933)
(0.0201669 -0.00136148 -0.00920072)
(0.0257172 -0.00159639 -0.00404584)
(0.0263284 -0.00167738 -0.00232516)
(0.0263761 -0.0016799 -0.00138911)
(0.0266469 -0.0016396 -0.000801632)
(0.0266414 -0.00156697 -0.000431464)
(0.0261145 -0.00146863 -0.000112096)
(0.0250315 -0.00135283 0.000272414)
(0.0232217 -0.00122798 0.000809834)
(0.020365 -0.00110762 0.00155507)
(0.0161272 -0.00100532 0.00242056)
(0.0103867 -0.000939535 0.00319002)
(0.00323053 -0.000657189 0.00316566)
(0.00643585 -0.000685345 -0.0276088)
(0.0201394 -0.0011626 -0.00921952)
(0.0257023 -0.00135318 -0.00406054)
(0.0263306 -0.00140796 -0.00233917)
(0.0263872 -0.00140081 -0.00140341)
(0.0266645 -0.00136114 -0.000815986)
(0.0266722 -0.00129696 -0.000447058)
(0.0261576 -0.00121578 -0.000128957)
(0.0250838 -0.00112701 0.000255048)
(0.0232781 -0.00103956 0.000795194)
(0.0204161 -0.000966575 0.00154866)
(0.0161596 -0.00092076 0.0024252)
(0.0103861 -0.000935483 0.00320399)
(0.00321207 -0.000794869 0.00318191)
(0.00642963 -0.000552431 -0.0276353)
(0.020129 -0.000939114 -0.00925131)
(0.0257146 -0.00107822 -0.00408579)
(0.0263624 -0.00110328 -0.00236073)
(0.026427 -0.00108597 -0.00142298)
(0.02671 -0.00104867 -0.000833608)
(0.0267277 -0.000995813 -0.000462338)
(0.0262204 -0.000934963 -0.000142741)
(0.02515 -0.000876276 0.000242556)
(0.0233433 -0.000829827 0.000785299)
(0.0204727 -0.000809467 0.00154374)
(0.0161997 -0.000828206 0.00242889)
(0.0103962 -0.000940528 0.00321609)
(0.00320556 -0.000962405 0.00319723)
(0.00643287 -0.000418828 -0.0276701)
(0.0201391 -0.000710328 -0.00929301)
(0.0257577 -0.000793567 -0.00411903)
(0.0264288 -0.000786074 -0.00238715)
(0.0265011 -0.000756836 -0.00144401)
(0.02679 -0.000721233 -0.000849686)
(0.0268146 -0.000680329 -0.000473261)
(0.0263103 -0.000640997 -0.000149253)
(0.0252381 -0.000614261 0.000238962)
(0.0234258 -0.000611407 0.000784564)
(0.0205447 -0.000646914 0.00154623)
(0.0162565 -0.000734011 0.00243543)
(0.0104293 -0.000950026 0.00322555)
(0.00320931 -0.00114096 0.00321129)
(0.00643977 -0.000295316 -0.0277077)
(0.0201653 -0.000496282 -0.0093385)
(0.0258266 -0.000523822 -0.00415403)
(0.0265242 -0.000483279 -0.00241329)
(0.0266044 -0.000440206 -0.00146279)
(0.0269002 -0.000404321 -0.000861342)
(0.0269285 -0.00037412 -0.00047751)
(0.0264226 -0.000355882 -0.000147581)
(0.0253433 -0.000360895 0.000244811)
(0.0235203 -0.000401424 0.000794023)
(0.0206269 -0.000492563 0.00155757)
(0.016325 -0.000647233 0.0024467)
(0.0104836 -0.000962528 0.00323637)
(0.00323365 -0.00131082 0.00322521)
(0.00644986 -0.000188714 -0.0277466)
(0.0202063 -0.00031118 -0.00938011)
(0.025919 -0.000288517 -0.004186)
(0.0266446 -0.000216776 -0.0024381)
(0.0267324 -0.000159363 -0.00148103)
(0.0270345 -0.000121675 -0.00087263)
(0.0270622 -0.000100363 -0.000480473)
(0.0265493 -0.00010125 -0.000143341)
(0.0254574 -0.000135508 0.000254149)
(0.0236184 -0.000216036 0.000807888)
(0.0207095 -0.00035845 0.00157278)
(0.0163944 -0.000575224 0.00245901)
(0.0105428 -0.000978333 0.00324649)
(0.0032666 -0.00145839 0.00323756)
(0.00646921 -0.00010207 -0.0277842)
(0.020267 -0.000162084 -0.00941741)
(0.0260366 -9.86186e-05 -0.00421577)
(0.0267903 -2.9242e-07 -0.00246263)
(0.0268834 7.08023e-05 -0.0014999)
(0.0271892 0.000111361 -0.000884915)
(0.0272109 0.000126038 -0.000483579)
(0.0266854 0.000109255 -0.000137727)
(0.025575 5.01597e-05 0.000266146)
(0.0237143 -6.47002e-05 0.000825159)
(0.0207869 -0.000251009 0.00159083)
(0.0164592 -0.000520116 0.00247175)
(0.0106013 -0.000995077 0.00325488)
(0.00330682 -0.00157652 0.00324739)
(0.00649882 -3.60453e-05 -0.0278236)
(0.0203473 -4.9411e-05 -0.00945734)
(0.0261758 4.31704e-05 -0.00424731)
(0.0269578 0.000160538 -0.00248566)
(0.0270553 0.00024293 -0.00151593)
(0.0273618 0.000286152 -0.000893722)
(0.0273723 0.000295919 -0.000482018)
(0.0268293 0.000266509 -0.000126384)
(0.0256947 0.000187521 0.000286768)
(0.0238078 4.50049e-05 0.000850151)
(0.0208599 -0.00017591 0.0016141)
(0.016521 -0.000484689 0.00248603)
(0.010662 -0.00101185 0.00326177)
(0.00335492 -0.00165858 0.00325441)
(0.00653236 8.96617e-06 -0.0278613)
(0.020438 2.76547e-05 -0.00949632)
(0.0263268 0.000135188 -0.00427733)
(0.0271391 0.000262159 -0.00250557)
(0.0272411 0.000350586 -0.0015279)
(0.0275462 0.000394492 -0.0008988)
(0.0275417 0.000400408 -0.000476864)
(0.0269765 0.000361694 -0.000109341)
(0.025814 0.000267784 0.000313114)
(0.0238987 0.000105308 0.000879526)
(0.0209302 -0.000138665 0.0016396)
(0.0165826 -0.000471439 0.00249986)
(0.0107283 -0.00102577 0.00326627)
(0.00340792 -0.00169521 0.00325846)
(0.00656717 3.37554e-05 -0.027894)
(0.0205318 6.69227e-05 -0.00953198)
(0.0264808 0.000175387 -0.00430558)
(0.0273245 0.000302104 -0.00252547)
(0.0274309 0.000389823 -0.00154005)
(0.0277336 0.000430789 -0.000901112)
(0.0277114 0.000432813 -0.000466054)
(0.0271213 0.000387907 -8.71112e-05)
(0.0259292 0.000285123 0.000340831)
(0.0239843 0.00011213 0.000908335)
(0.0209965 -0.000140718 0.00166299)
(0.0166432 -0.000478794 0.00251044)
(0.0107974 -0.00103046 0.00326719)
(0.00346319 -0.00167728 0.00325943)
(0.00660103 3.74297e-05 -0.0279274)
(0.0206221 6.63522e-05 -0.00956855)
(0.0266298 0.000163926 -0.00433505)
(0.0275046 0.000281242 -0.00254714)
(0.0276164 0.000362029 -0.00155429)
(0.0279076 0.00039758 -0.000902686)
(0.0278666 0.000394853 -0.000454907)
(0.0272513 0.00034616 -6.69591e-05)
(0.0260297 0.000241405 0.00036568)
(0.0240566 6.90567e-05 0.000933393)
(0.0210512 -0.000176866 0.00168064)
(0.016695 -0.000500302 0.00251546)
(0.0108592 -0.00101956 0.00326382)
(0.00351905 -0.00160146 0.00325717)
(0.00663134 1.80902e-05 -0.0279603)
(0.0207032 2.82294e-05 -0.00960713)
(0.0267666 0.000104633 -0.00436565)
(0.0276721 0.000203562 -0.00256914)
(0.0277892 0.000272371 -0.00157035)
(0.0280665 0.000301496 -0.000909612)
(0.0280061 0.000295361 -0.000453145)
(0.027366 0.000247419 -5.73151e-05)
(0.0261168 0.000148485 0.000380995)
(0.0241182 -1.07796e-05 0.000949473)
(0.0210974 -0.000234199 0.00168906)
(0.0167401 -0.000524488 0.00251344)
(0.0109148 -0.000986103 0.00325633)
(0.00356982 -0.00147097 0.00325196)
(0.0066593 -2.15456e-05 -0.0279884)
(0.0207752 -4.04889e-05 -0.00964322)
(0.0268855 6.98771e-06 -0.00439539)
(0.0278184 7.94317e-05 -0.00259171)
(0.02794 0.00013217 -0.00158965)
(0.0282048 0.000154768 -0.000922027)
(0.0281268 0.000148278 -0.000458598)
(0.0274644 0.000106776 -5.79327e-05)
(0.0261898 2.18687e-05 0.000385871)
(0.0241693 -0.000112637 0.000955167)
(0.021136 -0.00029976 0.00168902)
(0.0167782 -0.00054142 0.00250613)
(0.0109625 -0.00092541 0.00324672)
(0.00360914 -0.0012938 0.00324585)
(0.00668495 -7.55119e-05 -0.0280089)
(0.0208379 -0.000131693 -0.00967312)
(0.0269817 -0.000116962 -0.00442394)
(0.0279364 -7.5102e-05 -0.00261643)
(0.0280629 -4.01975e-05 -0.00161186)
(0.0283181 -2.30348e-05 -0.000940366)
(0.0282253 -2.64319e-05 -0.000472676)
(0.0275443 -5.63112e-05 -6.84363e-05)
(0.026249 -0.00011949 0.000379673)
(0.0242109 -0.000220191 0.000950671)
(0.0211677 -0.00036086 0.00168197)
(0.0168094 -0.000543327 0.0024958)
(0.0110013 -0.00083712 0.00323716)
(0.00364089 -0.00108084 0.00324035)
(0.00670553 -0.000138483 -0.0280159)
(0.0208873 -0.000238159 -0.00968518)
(0.0270532 -0.000258366 -0.00443815)
(0.0280244 -0.000248133 -0.00263023)
(0.0281574 -0.000231093 -0.00162504)
(0.0284079 -0.000217638 -0.00095262)
(0.0283047 -0.000214438 -0.000483328)
(0.0276099 -0.000227671 -7.66424e-05)
(0.0262998 -0.000262592 0.000373594)
(0.0242491 -0.000322775 0.00094568)
(0.0211983 -0.0004106 0.00167564)
(0.0168385 -0.000528196 0.00248803)
(0.0110351 -0.000726008 0.00323078)
(0.00366702 -0.000842923 0.00323654)
(0.00672326 -0.000204955 -0.0280108)
(0.0209229 -0.00035087 -0.0096779)
(0.0271001 -0.00040742 -0.00443352)
(0.0280823 -0.000429369 -0.00262729)
(0.0282234 -0.000430391 -0.00162228)
(0.0284748 -0.000419985 -0.000950447)
(0.0283665 -0.000408213 -0.000481923)
(0.0276636 -0.000401644 -7.49802e-05)
(0.0263441 -0.000404368 0.000375495)
(0.0242847 -0.000419898 0.000947199)
(0.0212275 -0.000451508 0.00167572)
(0.0168634 -0.000501813 0.00248685)
(0.0110609 -0.000601042 0.00322964)
(0.00368132 -0.000592025 0.00323482)
(0.00673722 -0.00027088 -0.0280007)
(0.0209422 -0.000460134 -0.0096626)
(0.027119 -0.000552086 -0.00441999)
(0.0281063 -0.00060574 -0.00261555)
(0.0282568 -0.00062493 -0.00161043)
(0.0285151 -0.000618015 -0.000939919)
(0.0284081 -0.000597649 -0.000473881)
(0.0277033 -0.000570681 -6.82103e-05)
(0.0263804 -0.000540459 0.000381557)
(0.024316 -0.000510873 0.000952864)
(0.0212525 -0.000486361 0.00168124)
(0.0168803 -0.00047021 0.00249212)
(0.011074 -0.000471441 0.00323381)
(0.00368269 -0.000343022 0.00323549)
(0.00673719 -0.000333263 -0.0279799)
(0.0209361 -0.000561224 -0.00963533)
(0.0271022 -0.000686858 -0.00439576)
(0.0280905 -0.00077085 -0.00259438)
(0.0282532 -0.000807859 -0.00159026)
(0.0285253 -0.000805287 -0.000922103)
(0.0284268 -0.000777689 -0.000459458)
(0.0277275 -0.000731901 -5.63362e-05)
(0.0264076 -0.000670713 0.000391839)
(0.0243421 -0.000598502 0.000962856)
(0.0212727 -0.000520667 0.00169217)
(0.0168893 -0.00044121 0.00250351)
(0.011073 -0.000347956 0.00324292)
(0.00367691 -0.000111421 0.00323782)
(0.00672294 -0.000388461 -0.0279471)
(0.0209047 -0.000653863 -0.00959509)
(0.0270502 -0.000812665 -0.0043613)
(0.0280371 -0.000924918 -0.00256359)
(0.0282149 -0.000978606 -0.00156214)
(0.0285071 -0.000980873 -0.000897997)
(0.0284244 -0.000947839 -0.000439831)
(0.0277376 -0.000886054 -4.07613e-05)
(0.0264269 -0.000797682 0.000404802)
(0.0243647 -0.000687171 0.000975485)
(0.0212902 -0.000560774 0.00170695)
(0.0168944 -0.000422852 0.00251956)
(0.0110612 -0.000241863 0.00325587)
(0.0036618 9.33029e-05 0.00324406)
(0.00670418 -0.000434062 -0.0279109)
(0.0208573 -0.000735806 -0.00955171)
(0.0269729 -0.000926446 -0.00432467)
(0.0279545 -0.00106403 -0.00253255)
(0.0281485 -0.00113253 -0.00153351)
(0.0284652 -0.00113965 -0.000873602)
(0.0284035 -0.00110315 -0.000420856)
(0.027735 -0.00102908 -2.68141e-05)
(0.026439 -0.000918784 0.000415533)
(0.024384 -0.000776166 0.000986169)
(0.021306 -0.000608045 0.00172141)
(0.016897 -0.000418974 0.00253711)
(0.0110417 -0.000161658 0.00327093)
(0.00363623 0.000268723 0.00325422)
(0.00668252 -0.000467158 -0.0278737)
(0.0207975 -0.000799124 -0.00950689)
(0.0268767 -0.00101742 -0.0042873)
(0.0278498 -0.00117635 -0.00250358)
(0.0280583 -0.00125782 -0.00150825)
(0.0284019 -0.00127007 -0.000852959)
(0.0283646 -0.00123235 -0.000405977)
(0.0277184 -0.0011501 -1.78218e-05)
(0.0264414 -0.0010244 0.000420612)
(0.0243973 -0.00085792 0.000991371)
(0.0213173 -0.000657627 0.00173211)
(0.016894 -0.00042813 0.00255333)
(0.0110137 -0.000110125 0.00328642)
(0.00360259 0.000407849 0.00326547)
(0.00665748 -0.000484821 -0.0278351)
(0.0207274 -0.000837129 -0.00946067)
(0.0267648 -0.00107512 -0.00424712)
(0.0277279 -0.00124865 -0.00247161)
(0.0279492 -0.00133983 -0.00148363)
(0.0283198 -0.00135719 -0.000836817)
(0.0283091 -0.00132054 -0.000398004)
(0.027688 -0.00123434 -1.56697e-05)
(0.0264327 -0.00110038 0.000418227)
(0.0244022 -0.000919924 0.000989041)
(0.0213218 -0.000699714 0.00173675)
(0.0168832 -0.000443991 0.00256601)
(0.0109752 -8.56273e-05 0.00330079)
(0.00356145 0.0004984 0.00327553)
(0.00663134 -0.000486245 -0.0277978)
(0.0206519 -0.000847563 -0.00941667)
(0.0266467 -0.00109369 -0.00420809)
(0.0275989 -0.0012705 -0.00243952)
(0.0278334 -0.00136409 -0.00145991)
(0.0282217 -0.00138501 -0.00082381)
(0.0282379 -0.00135035 -0.00039557)
(0.0276439 -0.00126462 -2.03318e-05)
(0.0264128 -0.00113005 0.000408208)
(0.0243988 -0.000947218 0.00097881)
(0.0213202 -0.000721465 0.00173434)
(0.016867 -0.000456521 0.00257359)
(0.0109306 -8.34968e-05 0.00331273)
(0.00351626 0.000530964 0.00328322)
(0.00660513 -0.000470847 -0.0277661)
(0.0205756 -0.000827973 -0.00938028)
(0.0265312 -0.00106878 -0.00417679)
(0.0274753 -0.00123697 -0.0024167)
(0.0277223 -0.00132511 -0.00144496)
(0.0281257 -0.00134597 -0.000816416)
(0.0281677 -0.00131355 -0.000397036)
(0.0276008 -0.00123252 -2.98205e-05)
(0.0263948 -0.00110489 0.000393337)
(0.0243992 -0.000931192 0.000963509)
(0.0213247 -0.00071437 0.00172558)
(0.0168592 -0.000457857 0.00257541)
(0.0108964 -9.7066e-05 0.00332126)
(0.00347858 0.000506293 0.00328934)
(0.00658033 -0.00043697 -0.0277436)
(0.0205034 -0.00077429 -0.00935609)
(0.0264259 -0.000997057 -0.00415775)
(0.0273633 -0.00114763 -0.0024051)
(0.0276213 -0.00122528 -0.00143813)
(0.028038 -0.00124376 -0.000812455)
(0.0281041 -0.00121402 -0.000401113)
(0.0275625 -0.00114072 -4.23487e-05)
(0.0263805 -0.00102603 0.000375562)
(0.0244037 -0.000870303 0.000944974)
(0.0213355 -0.000675141 0.00171191)
(0.0168609 -0.000443334 0.00257212)
(0.0108754 -0.000118744 0.00332611)
(0.00345182 0.000435679 0.00329362)
(0.006558 -0.000383049 -0.027732)
(0.0204393 -0.000683067 -0.00934615)
(0.0263341 -0.000876526 -0.00415053)
(0.0272663 -0.00100188 -0.00240249)
(0.0275326 -0.00106494 -0.00143858)
(0.0279592 -0.00107924 -0.000816699)
(0.028046 -0.00105259 -0.000412345)
(0.0275265 -0.000989806 -6.06929e-05)
(0.0263655 -0.00089343 0.000353239)
(0.024406 -0.000763509 0.000922329)
(0.0213448 -0.000601444 0.00169421)
(0.0168637 -0.000409118 0.00256481)
(0.01086 -0.000141935 0.00332778)
(0.00343145 0.00032916 0.00329619)
(0.00653828 -0.000309737 -0.0277304)
(0.0203844 -0.000554135 -0.00934742)
(0.0262586 -0.000706771 -0.00415294)
(0.0271875 -0.000799808 -0.00240705)
(0.0274585 -0.000844701 -0.001447)
(0.0278917 -0.00085372 -0.000828192)
(0.0279952 -0.000831546 -0.000428193)
(0.0274931 -0.000782495 -8.12876e-05)
(0.0263488 -0.000709699 0.000329796)
(0.0244031 -0.000613191 0.000899326)
(0.021348 -0.000494305 0.00167603)
(0.0168622 -0.00035422 0.00255615)
(0.0108448 -0.000162513 0.00332764)
(0.00341385 0.000191913 0.00329679)
(0.00651884 -0.000219492 -0.0277343)
(0.0203393 -0.000392405 -0.00935458)
(0.0262049 -0.000494559 -0.00415937)
(0.0271342 -0.000550067 -0.00241513)
(0.0274077 -0.000574811 -0.00145752)
(0.027845 -0.000578423 -0.000839994)
(0.02796 -0.000562479 -0.000442123)
(0.0274699 -0.000530073 -9.8149e-05)
(0.0263362 -0.000484732 0.000311619)
(0.0243994 -0.000427344 0.000881864)
(0.0213477 -0.000359431 0.00166235)
(0.016858 -0.000281479 0.00254956)
(0.010831 -0.000179108 0.00332743)
(0.00339853 2.87169e-05 0.00329764)
(0.00650652 -0.000120812 -0.0277461)
(0.0203128 -0.000212432 -0.00936874)
(0.0261825 -0.000257153 -0.0041694)
(0.0271171 -0.000273032 -0.00242397)
(0.027392 -0.000276987 -0.00146635)
(0.0278318 -0.000274594 -0.00084781)
(0.0279508 -0.000265456 -0.00044942)
(0.0274662 -0.000251412 -0.000106556)
(0.0263365 -0.000235542 0.000302984)
(0.0244019 -0.000220223 0.000873996)
(0.0213496 -0.000207632 0.00165654)
(0.0168557 -0.000197835 0.00254718)
(0.0108216 -0.000194249 0.00332818)
(0.00338637 -0.000150298 0.00330029)
(0.00650491 -2.58528e-05 -0.0277593)
(0.0203107 -3.37539e-05 -0.00938025)
(0.0261949 -1.72638e-05 -0.00417512)
(0.0271378 6.02765e-06 -0.00242694)
(0.0274142 2.26426e-05 -0.00146755)
(0.0278552 3.20045e-05 -0.000847688)
(0.0279752 3.50973e-05 -0.000447979)
(0.027489 3.09318e-05 -0.000103344)
(0.0263558 1.72771e-05 0.000307081)
(0.0244162 -9.53842e-06 0.000878564)
(0.0213585 -5.26193e-05 0.00166075)
(0.016859 -0.000112284 0.00255023)
(0.0108201 -0.000211163 0.00333033)
(0.00337821 -0.000331491 0.00330384)
(0.00651248 5.97123e-05 -0.0277589)
(0.0203348 0.000128251 -0.00937456)
(0.0262363 0.00020259 -0.00416829)
(0.0271858 0.00026314 -0.00241946)
(0.0274633 0.000299882 -0.00145871)
(0.0279039 0.000316483 -0.000838052)
(0.0280198 0.000314538 -0.000436899)
(0.0275262 0.000293965 -8.93086e-05)
(0.0263837 0.000252746 0.000322765)
(0.0244338 0.000186406 0.000894387)
(0.0213681 9.10121e-05 0.00167425)
(0.0168646 -3.44844e-05 0.00255836)
(0.0108265 -0.000231118 0.00333363)
(0.00337525 -0.000505183 0.00330712)
(0.00652794 0.000134045 -0.0277551)
(0.0203816 0.000263871 -0.00936775)
(0.0262995 0.000386658 -0.00416448)
(0.0272529 0.000481551 -0.00241544)
(0.0275294 0.000537278 -0.0014523)
(0.027968 0.000560454 -0.000829762)
(0.0280741 0.00055457 -0.000425003)
(0.0275682 0.00052004 -7.2389e-05)
(0.0264118 0.000454349 0.000342827)
(0.0244479 0.000352723 0.000915208)
(0.0213733 0.000210617 0.00169216)
(0.0168694 2.68026e-05 0.00256857)
(0.0108388 -0.000255583 0.00333647)
(0.00338282 -0.000663814 0.00330898)
(0.00654743 0.000195127 -0.0277642)
(0.0204414 0.000371091 -0.00937969)
(0.0263805 0.000531847 -0.00417672)
(0.0273373 0.00065655 -0.00242524)
(0.02761 0.00072855 -0.00145924)
(0.0280449 0.000756391 -0.000833189)
(0.0281383 0.000746556 -0.000421308)
(0.0276162 0.000699676 -6.06164e-05)
(0.0264416 0.000612592 0.000360011)
(0.0244605 0.000480533 0.000934623)
(0.0213765 0.00029886 0.00170915)
(0.0168747 6.68981e-05 0.00257719)
(0.010856 -0.00028545 0.00333716)
(0.00340322 -0.000798966 0.00330916)
(0.0065724 0.000242103 -0.0277889)
(0.0205139 0.000450547 -0.00941163)
(0.0264833 0.000636644 -0.00420432)
(0.027449 0.000784581 -0.00244489)
(0.0277169 0.000870622 -0.00147404)
(0.0281454 0.000902153 -0.000843469)
(0.028222 0.000888313 -0.000424065)
(0.0276792 0.000830168 -5.44707e-05)
(0.0264817 0.000724855 0.000373113)
(0.0244802 0.000567305 0.000950993)
(0.0213856 0.000354377 0.00172329)
(0.0168868 8.63182e-05 0.00258256)
(0.0108822 -0.000317614 0.00333506)
(0.00343417 -0.000901427 0.00330739)
(0.00660265 0.000275108 -0.0278243)
(0.0205967 0.00050092 -0.00945378)
(0.0266067 0.000696803 -0.00424109)
(0.0275889 0.00085753 -0.00247141)
(0.0278523 0.000953749 -0.00149042)
(0.0282721 0.000988397 -0.000851715)
(0.0283266 0.000971985 -0.000422749)
(0.0277578 0.0009053 -4.45037e-05)
(0.0265335 0.000786524 0.000390006)
(0.0245087 0.000610456 0.000970276)
(0.0214023 0.000377019 0.00173737)
(0.0169069 8.72687e-05 0.002586)
(0.0109191 -0.000345948 0.00333091)
(0.0034726 -0.000961049 0.00330385)
(0.00663582 0.000290941 -0.0278613)
(0.0206834 0.000517809 -0.00949467)
(0.0267426 0.00070946 -0.00427501)
(0.0277441 0.000870654 -0.00249763)
(0.0280013 0.000968886 -0.00150885)
(0.0284083 0.00100307 -0.000860484)
(0.0284361 0.000984578 -0.000418301)
(0.0278381 0.000913463 -3.10178e-05)
(0.0265851 0.000788227 0.000410101)
(0.0245362 0.000604659 0.000991467)
(0.0214184 0.000364997 0.00175049)
(0.0169282 7.1035e-05 0.00258738)
(0.0109608 -0.000364512 0.00332486)
(0.00351614 -0.000968676 0.00329877)
(0.00666728 0.00028565 -0.0278958)
(0.0207659 0.000498017 -0.00953179)
(0.0268771 0.000674949 -0.00430499)
(0.0278976 0.000826658 -0.0025209)
(0.0281464 0.000917941 -0.00152623)
(0.0285348 0.000946535 -0.000870576)
(0.0285342 0.000924973 -0.000418284)
(0.0279059 0.000853476 -2.26218e-05)
(0.0266243 0.000729719 0.000424445)
(0.0245526 0.000551167 0.00100653)
(0.0214257 0.00032099 0.00175793)
(0.0169429 4.15235e-05 0.0025844)
(0.0109984 -0.000368098 0.00331619)
(0.00356024 -0.000920119 0.00329178)
(0.00669318 0.000258703 -0.0279293)
(0.0208378 0.00044344 -0.00956956)
(0.0269967 0.00059831 -0.0043363)
(0.0280338 0.000732686 -0.00254421)
(0.0282734 0.00081095 -0.00154369)
(0.0286366 0.000831931 -0.000880648)
(0.0286094 0.000808237 -0.000421599)
(0.0279535 0.000740643 -2.04433e-05)
(0.0266455 0.000626029 0.000430931)
(0.0245542 0.000463609 0.0010131)
(0.0214207 0.00025703 0.00175793)
(0.0169469 8.62605e-06 0.00257636)
(0.011024 -0.000351658 0.00330484)
(0.00359642 -0.000821158 0.00328267)
(0.00671212 0.000214177 -0.0279638)
(0.0208955 0.00036279 -0.00961128)
(0.0270937 0.000489654 -0.00437149)
(0.0281429 0.000599958 -0.0025711)
(0.0283718 0.000662615 -0.00156621)
(0.0287129 0.000677177 -0.000897584)
(0.0286629 0.000654509 -0.000433326)
(0.0279835 0.000595152 -2.82819e-05)
(0.0266531 0.000496615 0.000426884)
(0.0245464 0.000359475 0.0010096)
(0.021409 0.000187378 0.00174996)
(0.0169439 -1.76432e-05 0.00256373)
(0.0110385 -0.000313138 0.00329182)
(0.00361744 -0.000686451 0.00327309)
(0.0067249 0.000155082 -0.0279976)
(0.0209384 0.000276086 -0.00965374)
(0.0271665 0.000373457 -0.0044082)
(0.028224 0.000451108 -0.00260306)
(0.0284439 0.000495097 -0.00159497)
(0.0287674 0.000505077 -0.000921887)
(0.0286993 0.000486008 -0.00045222)
(0.0280015 0.000438028 -4.18862e-05)
(0.0266545 0.000361065 0.00041715)
(0.0245372 0.000256699 0.00100078)
(0.0213984 0.000127841 0.00173837)
(0.0169411 -2.46448e-05 0.00254992)
(0.0110497 -0.000247351 0.00327952)
(0.0036273 -0.000530171 0.00326505)
(0.00674522 5.04001e-05 -0.0280295)
(0.0209832 0.00016841 -0.00969019)
(0.0272168 0.000250035 -0.00443806)
(0.0282779 0.000287823 -0.00262463)
(0.0284998 0.000307676 -0.00161269)
(0.0288143 0.00031363 -0.000935601)
(0.028733 0.000300494 -0.000460235)
(0.0280228 0.000266845 -4.5982e-05)
(0.0266665 0.000215335 0.000414881)
(0.0245448 0.000148349 0.000997699)
(0.0214077 6.89197e-05 0.00173206)
(0.016957 -2.28422e-05 0.00254142)
(0.0110755 -0.000164846 0.00327255)
(0.0036418 -0.000368688 0.00326289)
(0.00683897 -9.50352e-06 -0.0278461)
(0.0211425 5.31091e-05 -0.00952053)
(0.0273192 9.21342e-05 -0.00431976)
(0.0283616 9.98777e-05 -0.00253376)
(0.0285908 0.000102741 -0.00153845)
(0.0289 0.000104737 -0.000875899)
(0.0288042 0.000100054 -0.000413417)
(0.0280812 8.72317e-05 -7.44109e-06)
(0.026716 6.81698e-05 0.000445619)
(0.0245899 4.41683e-05 0.00101966)
(0.0214534 1.72564e-05 0.00174418)
(0.0170073 -1.23611e-05 0.00254576)
(0.0111278 -6.11415e-05 0.00327596)
(0.0036808 -0.000143494 0.00327821)
(0.00181848 -0.000692477 -0.018982)
(0.0090368 -0.000536802 6.90208e-06)
(0.0125958 -0.000472036 0.00264886)
(0.013499 -0.000430757 0.00274942)
(0.0138784 -0.000270929 0.00305582)
(0.0140272 -2.87744e-05 0.00333706)
(0.0133929 0.000346443 0.00349903)
(0.0117518 0.000866904 0.0036919)
(0.00916444 0.00124956 0.00403981)
(0.00574426 0.00123668 0.00447195)
(0.00167508 0.000486005 0.00492823)
(-0.0020502 -0.00165435 0.00553889)
(-0.00216959 -0.00371143 0.00604704)
(-0.00110295 -0.00379949 0.00507245)
(0.00101496 -0.0017938 -0.0215116)
(0.00846749 -0.00190216 -0.0032162)
(0.0121118 -0.00171704 -0.000463808)
(0.0134584 -0.00150162 0.000276903)
(0.014764 -0.00117918 0.0012814)
(0.0161953 -0.000741404 0.0020657)
(0.017254 -0.000199328 0.00267747)
(0.0177388 0.000430528 0.00333864)
(0.0175646 0.00110127 0.00410993)
(0.0165833 0.00163576 0.00493315)
(0.0146571 0.00160524 0.00576676)
(0.0119957 0.000542159 0.00650162)
(0.00798257 -0.00226963 0.00743789)
(0.00289678 -0.00493109 0.00736384)
(0.000804044 -0.0019483 -0.0208855)
(0.0082892 -0.00234874 -0.00273802)
(0.0116372 -0.00228262 -0.000636453)
(0.0127591 -0.00210562 -0.000356298)
(0.0139219 -0.00187099 0.000435722)
(0.0152779 -0.00160293 0.00118214)
(0.0163321 -0.00128083 0.00177038)
(0.0169348 -0.000878041 0.00241395)
(0.0171326 -0.000404202 0.003211)
(0.0168622 2.55376e-05 0.00414582)
(0.0158222 8.22933e-05 0.00520971)
(0.0135798 -0.00058513 0.0064007)
(0.00979911 -0.00206061 0.00783404)
(0.00386071 -0.00295058 0.00795144)
(0.000786317 -0.0020846 -0.0209586)
(0.00819372 -0.00270787 -0.00284417)
(0.011406 -0.00265393 -0.000842669)
(0.0124475 -0.00240624 -0.000637386)
(0.0135706 -0.00214067 6.69907e-05)
(0.0148227 -0.00189965 0.000716167)
(0.0157336 -0.00166218 0.00123307)
(0.0161998 -0.00138354 0.0018166)
(0.0162552 -0.00105198 0.00260359)
(0.015817 -0.00070768 0.00363367)
(0.014659 -0.000484398 0.00494275)
(0.0124232 -0.000577275 0.0065119)
(0.00871437 -0.00110724 0.00823211)
(0.00307409 -0.00124452 0.00826107)
(0.000785873 -0.00211954 -0.0210443)
(0.00811034 -0.00280623 -0.00304552)
(0.0112363 -0.00274266 -0.00112042)
(0.0122233 -0.00244324 -0.000946242)
(0.0133111 -0.00213696 -0.000278404)
(0.0144728 -0.00188327 0.000328285)
(0.0152843 -0.00165901 0.000802688)
(0.0156632 -0.00142244 0.00135779)
(0.015664 -0.00114521 0.00215603)
(0.0151899 -0.000840093 0.00328872)
(0.0139803 -0.000594371 0.00482027)
(0.0116544 -0.000554519 0.00667145)
(0.00788645 -0.000754086 0.00852999)
(0.00258264 -0.000564047 0.00844011)
(0.000763755 -0.00206032 -0.0210214)
(0.0080239 -0.00273809 -0.00310628)
(0.0111061 -0.00266161 -0.00126641)
(0.0120797 -0.0023335 -0.00113196)
(0.0131557 -0.00199652 -0.00048292)
(0.0142901 -0.00171904 0.000101865)
(0.0150597 -0.00148344 0.000543475)
(0.0154027 -0.0012607 0.00107959)
(0.0153936 -0.00102585 0.00188712)
(0.0149275 -0.00079252 0.003087)
(0.013713 -0.000618582 0.00475632)
(0.0113402 -0.000580366 0.00677027)
(0.00751701 -0.000654911 0.00869929)
(0.00234676 -0.000366602 0.00854726)
(0.000741246 -0.00192217 -0.0209874)
(0.00795779 -0.00256133 -0.00311963)
(0.0110074 -0.00245888 -0.00135147)
(0.0119798 -0.00211057 -0.00124872)
(0.0130565 -0.00175431 -0.00060615)
(0.0141908 -0.00146097 -3.29854e-05)
(0.0149476 -0.00121853 0.000390492)
(0.0152858 -0.001008 0.000916952)
(0.015289 -0.000814834 0.00173065)
(0.0148447 -0.000657398 0.00296797)
(0.0136389 -0.000572036 0.00471189)
(0.0112398 -0.000584128 0.00681493)
(0.0073756 -0.000647114 0.00879011)
(0.0022452 -0.000364721 0.00860927)
(0.000733533 -0.00173332 -0.0209842)
(0.00790517 -0.00230193 -0.00317086)
(0.0109323 -0.00217459 -0.00144838)
(0.0119048 -0.00182 -0.00135741)
(0.0129828 -0.00146269 -0.000706077)
(0.0141191 -0.00117046 -0.000133772)
(0.0148736 -0.000933581 0.000287731)
(0.0152185 -0.000742075 0.000815683)
(0.0152389 -0.00059091 0.0016356)
(0.014816 -0.000501894 0.00289394)