/*--------------------------------*- C++ -*----------------------------------*\
| =========                 |                                                 |
| \\      /  F ield         | OpenFOAM: The Open Source CFD Toolbox           |
|  \\    /   O peration     | Version:  5.0                                   |
|   \\  /    A nd           | Web:      www.OpenFOAM.org                      |
|    \\/     M anipulation  |                                                 |
\*---------------------------------------------------------------------------*/
FoamFile
{
    version     2.0;
    format      ascii;
    class       volScalarField;
    location    "0.5";
    object      p;
}
// * * * * * * * * * * * * * * * * * * * * * * * * * * * * * * * * * * * * * //

dimensions      [0 2 -2 0 0 0 0];

internalField   nonuniform List<scalar> 
50
(
-0.100977
-0.000531472
-5.85769e-05
0.000212794
0.0501695
-0.0611145
0.000359357
-0.000288001
-1.88381e-05
0.0309568
-0.036626
0.0006303
-0.000307196
-0.000122351
0.018863
-0.0218523
0.00042936
-0.000208957
-0.000102488
0.0112817
-0.00750405
0.000122804
-8.8605e-05
-5.51113e-05
0.00385326
0.00747646
-0.000188221
3.2835e-05
-7.88159e-06
-0.00389001
0.0218247
-0.000494637
0.000153188
3.95421e-05
-0.0113184
0.0365986
-0.000695328
0.000251404
5.94922e-05
-0.0188998
0.0610883
-0.000423367
0.000232223
-4.36251e-05
-0.0309939
0.100953
0.000469911
2.92765e-06
-0.000274226
-0.0502075
)
;

boundaryField
{
    top
    {
        type            zeroGradient;
    }
    bottom
    {
        type            zeroGradient;
    }
    inlet
    {
        type            fixedValue;
        value           uniform 0;
    }
    outlet
    {
        type            fixedValue;
        value           nonuniform 0();
    }
    frontAndBack
    {
        type            empty;
    }
    procBoundary0to1
    {
        type            processor;
        value           nonuniform List<scalar> 10(-0.0502043 -0.0309925 -0.0188991 -0.0113179 -0.00388987 0.00385293 0.011281 0.018862 0.0309551 0.0501658);
    }
}


// ************************************************************************* //
