/*--------------------------------*- C++ -*----------------------------------*\
| =========                 |                                                 |
| \\      /  F ield         | OpenFOAM: The Open Source CFD Toolbox           |
|  \\    /   O peration     | Version:  5.0                                   |
|   \\  /    A nd           | Web:      www.OpenFOAM.org                      |
|    \\/     M anipulation  |                                                 |
\*---------------------------------------------------------------------------*/
FoamFile
{
    version     2.0;
    format      ascii;
    class       surfaceScalarField;
    location    "200";
    object      phi;
}
// * * * * * * * * * * * * * * * * * * * * * * * * * * * * * * * * * * * * * //

dimensions      [0 3 -1 0 0 0 0];

internalField   nonuniform List<scalar> 
19660
(
1.81034e-08
-1.75517e-09
-1.68988e-08
2.15359e-08
-2.05332e-09
-1.3794e-09
2.27984e-08
-1.87413e-09
6.115e-10
2.28948e-08
-1.58877e-09
1.49218e-09
2.20117e-08
-1.25502e-09
2.13788e-09
2.04417e-08
-8.6523e-10
2.43507e-09
1.82432e-08
-3.85105e-10
2.58337e-09
1.52898e-08
1.90645e-10
2.76261e-09
1.15076e-08
7.50185e-10
3.0318e-09
7.04468e-09
1.11981e-09
3.34288e-09
2.46749e-09
8.95477e-10
3.68148e-09
-9.66902e-10
-7.14426e-10
4.14858e-09
-1.81749e-09
-3.64928e-09
4.4996e-09
-5.65462e-09
3.83699e-09
1.86324e-08
-1.12739e-09
-1.92603e-08
2.29389e-08
-1.9921e-09
-4.36803e-09
2.53795e-08
-2.2292e-09
-2.08584e-09
2.67667e-08
-2.26377e-09
-7.12576e-10
2.71642e-08
-2.12554e-09
4.72725e-10
2.69352e-08
-1.85184e-09
1.21519e-09
2.6271e-08
-1.47259e-09
1.75146e-09
2.51735e-08
-1.00058e-09
2.28836e-09
2.35368e-08
-4.76571e-10
2.86323e-09
2.12235e-08
-2.22366e-11
3.45498e-09
1.80155e-08
4.1908e-11
4.06136e-09
1.33329e-08
-6.51425e-10
4.61922e-09
6.87119e-09
-2.49996e-09
5.31201e-09
-4.16893e-09
5.38533e-09
1.88381e-08
-1.20144e-09
-1.87642e-08
2.29753e-08
-2.01582e-09
-4.11375e-09
2.53586e-08
-2.36142e-09
-2.25137e-09
2.67594e-08
-2.52088e-09
-1.1441e-09
2.72388e-08
-2.51875e-09
-8.6436e-11
2.71623e-08
-2.38044e-09
6.04809e-10
2.67102e-08
-2.13716e-09
1.11642e-09
2.58544e-08
-1.80423e-09
1.65915e-09
2.44958e-08
-1.39904e-09
2.28091e-09
2.24861e-08
-9.91838e-10
2.9791e-09
1.95028e-08
-7.35267e-10
3.76019e-09
1.50722e-08
-8.45073e-10
4.62403e-09
8.40085e-09
-1.48863e-09
5.65976e-09
-1.65155e-09
5.88336e-09
1.87652e-08
-1.25221e-09
-1.87145e-08
2.28709e-08
-2.07598e-09
-4.04572e-09
2.52642e-08
-2.47666e-09
-2.27835e-09
2.66885e-08
-2.68371e-09
-1.26169e-09
2.71909e-08
-2.72477e-09
-2.96709e-10
2.71485e-08
-2.64211e-09
3.03888e-10
2.67244e-08
-2.46608e-09
7.52873e-10
2.58602e-08
-2.20593e-09
1.26575e-09
2.44204e-08
-1.86788e-09
1.90853e-09
2.22183e-08
-1.48709e-09
2.69729e-09
1.89582e-08
-1.14e-09
3.66475e-09
1.42528e-08
-9.35898e-10
4.79611e-09
7.58131e-09
-8.52996e-10
6.03574e-09
-2.75746e-10
6.20546e-09
1.86857e-08
-1.25308e-09
-1.86849e-08
2.27398e-08
-2.0808e-09
-4.04939e-09
2.51213e-08
-2.48379e-09
-2.3746e-09
2.65377e-08
-2.68167e-09
-1.41861e-09
2.70427e-08
-2.72156e-09
-5.08429e-10
2.70222e-08
-2.65248e-09
3.08361e-11
2.66239e-08
-2.50512e-09
4.3726e-10
2.5771e-08
-2.28616e-09
9.33051e-10
2.43024e-08
-1.99417e-09
1.59497e-09
2.19874e-08
-1.64301e-09
2.47093e-09
1.85102e-08
-1.27186e-09
3.60922e-09
1.35633e-08
-9.38725e-10
4.9498e-09
6.97144e-09
-5.55857e-10
6.29482e-09
3.15203e-10
6.38055e-09
1.86057e-08
-1.22784e-09
-1.86309e-08
2.25967e-08
-2.02827e-09
-4.04356e-09
2.49652e-08
-2.40048e-09
-2.4519e-09
2.63787e-08
-2.56167e-09
-1.53358e-09
2.68853e-08
-2.57681e-09
-6.51512e-10
2.68812e-08
-2.50114e-09
-1.4725e-10
2.65134e-08
-2.36364e-09
2.26347e-10
2.56901e-08
-2.16711e-09
7.04383e-10
2.42292e-08
-1.90987e-09
1.37681e-09
2.18701e-08
-1.59704e-09
2.31339e-09
1.82823e-08
-1.25071e-09
3.5669e-09
1.32055e-08
-8.99257e-10
5.03766e-09
6.64907e-09
-4.33821e-10
6.43471e-09
5.09746e-10
6.45469e-09
1.85283e-08
-1.15549e-09
-1.86006e-08
2.24641e-08
-1.89817e-09
-4.06584e-09
2.48248e-08
-2.22001e-09
-2.54122e-09
2.6237e-08
-2.3332e-09
-1.64064e-09
2.67444e-08
-2.31719e-09
-7.66963e-10
2.6751e-08
-2.2315e-09
-2.76184e-10
2.64091e-08
-2.09738e-09
7.58131e-11
2.56161e-08
-1.91665e-09
5.42776e-10
2.41733e-08
-1.69192e-09
1.22519e-09
2.18005e-08
-1.42655e-09
2.20269e-09
1.81557e-08
-1.13369e-09
3.52827e-09
1.30052e-08
-8.23759e-10
5.07548e-09
6.46255e-09
-3.89376e-10
6.4988e-09
4.94572e-10
6.47799e-09
1.84576e-08
-1.02149e-09
-1.85915e-08
2.23428e-08
-1.67008e-09
-4.11308e-09
2.46962e-08
-1.92962e-09
-2.64376e-09
2.61072e-08
-1.99594e-09
-1.74817e-09
2.66125e-08
-1.95656e-09
-8.65805e-10
2.66255e-08
-1.86691e-09
-3.77444e-10
2.6303e-08
-1.74199e-09
-3.25734e-11
2.55359e-08
-1.58355e-09
4.34355e-10
2.41118e-08
-1.39541e-09
1.12805e-09
2.1735e-08
-1.18242e-09
2.13321e-09
1.80562e-08
-9.55666e-10
3.50143e-09
1.28603e-08
-7.18134e-10
5.09103e-09
6.32748e-09
-3.79606e-10
6.52381e-09
3.47406e-10
6.47502e-09
1.83946e-08
-8.33354e-10
-1.85826e-08
2.22319e-08
-1.35549e-09
-4.15158e-09
2.45798e-08
-1.54193e-09
-2.73543e-09
2.59917e-08
-1.56386e-09
-1.84386e-09
2.64971e-08
-1.51115e-09
-9.50553e-10
2.65145e-08
-1.42689e-09
-4.57193e-10
2.6204e-08
-1.32007e-09
-1.11014e-10
2.5455e-08
-1.19178e-09
3.57669e-10
2.40448e-08
-1.0467e-09
1.06207e-09
2.16656e-08
-8.91778e-10
2.08931e-09
1.79621e-08
-7.38008e-10
3.48659e-09
1.27325e-08
-5.89405e-10
5.10174e-09
6.20761e-09
-3.88085e-10
6.53438e-09
9.14009e-11
6.46408e-09
1.83452e-08
-6.15661e-10
-1.85626e-08
2.21439e-08
-9.92206e-10
-4.16168e-09
2.44911e-08
-1.09503e-09
-2.79384e-09
2.59085e-08
-1.07179e-09
-1.90918e-09
2.64187e-08
-1.01032e-09
-1.01071e-09
2.64406e-08
-9.378e-10
-5.10671e-10
2.61395e-08
-8.54651e-10
-1.63865e-10
2.54036e-08
-7.61878e-10
3.06589e-10
2.40012e-08
-6.64715e-10
1.02105e-09
2.16164e-08
-5.72572e-10
2.06648e-09
1.78916e-08
-4.98677e-10
3.48641e-09
1.26362e-08
-4.50312e-10
5.11728e-09
6.11894e-09
-4.136e-10
6.54391e-09
-2.42438e-10
6.45331e-09
1.8326e-08
-4.01106e-10
-1.85403e-08
2.21036e-08
-6.26633e-10
-4.14278e-09
2.44531e-08
-6.38164e-10
-2.80596e-09
2.58796e-08
-5.67171e-10
-1.93074e-09
2.63984e-08
-4.95584e-10
-1.0332e-09
2.64249e-08
-4.33485e-10
-5.30368e-10
2.61297e-08
-3.73783e-10
-1.85156e-10
2.54013e-08
-3.17987e-10
2.85183e-10
2.40013e-08
-2.71875e-10
1.00794e-09
2.16072e-08
-2.45998e-10
2.06847e-09
1.78624e-08
-2.56817e-10
3.50392e-09
1.25881e-08
-3.1657e-10
5.14174e-09
6.07885e-09
-4.61194e-10
6.55807e-09
-6.11209e-10
6.44821e-09
1.83375e-08
-2.10271e-10
-1.8528e-08
2.21165e-08
-2.9587e-10
-4.10927e-09
2.44685e-08
-2.11349e-10
-2.77838e-09
2.59075e-08
-9.28493e-11
-1.9129e-09
2.64382e-08
-7.04991e-12
-1.01876e-09
2.64693e-08
5.06234e-11
-5.14711e-10
2.61767e-08
8.98933e-11
-1.70483e-10
2.54492e-08
1.10165e-10
3.00049e-10
2.40447e-08
1.06061e-10
1.02751e-09
2.16369e-08
6.52605e-11
2.09752e-09
1.78718e-08
-3.22544e-11
3.54164e-09
1.2582e-08
-2.0307e-10
5.17757e-09
6.07473e-09
-5.32202e-10
6.5796e-09
-9.9078e-10
6.45493e-09
1.8381e-08
-5.02826e-11
-1.85406e-08
2.21814e-08
-4.16481e-12
-4.09146e-09
2.45396e-08
1.61309e-10
-2.73037e-09
2.59929e-08
3.21329e-10
-1.86696e-09
2.65336e-08
4.24374e-10
-9.71577e-10
2.65683e-08
4.82691e-10
-4.66226e-10
2.62743e-08
5.06173e-10
-1.21545e-10
2.55398e-08
4.95564e-10
3.49931e-10
2.41221e-08
4.45355e-10
1.0793e-09
2.16951e-08
3.40332e-10
2.15303e-09
1.79079e-08
1.57742e-10
3.59835e-09
1.26027e-08
-1.21748e-10
5.22517e-09
6.09102e-09
-6.27622e-10
6.60848e-09
-1.37187e-09
6.47277e-09
1.84578e-08
8.95412e-11
-1.85972e-08
2.23105e-08
2.47918e-10
-4.10411e-09
2.46797e-08
4.6948e-10
-2.67674e-09
2.61397e-08
6.6503e-10
-1.80312e-09
2.6683e-08
7.85931e-10
-9.04231e-10
2.6717e-08
8.45865e-10
-3.96523e-10
2.64152e-08
8.56913e-10
-4.81312e-11
2.56642e-08
8.20522e-10
4.26843e-10
2.42233e-08
7.28244e-10
1.15901e-09
2.17695e-08
5.62241e-10
2.23295e-09
1.79582e-08
2.98461e-10
3.6718e-09
1.26382e-08
-8.26607e-11
5.28225e-09
6.12078e-09
-7.50902e-10
6.64211e-09
-1.74649e-09
6.49605e-09
1.85637e-08
2.17085e-10
-1.86908e-08
2.24987e-08
4.48891e-10
-4.13526e-09
2.48846e-08
7.09147e-10
-2.62481e-09
2.63456e-08
9.33457e-10
-1.72875e-09
2.68857e-08
1.06955e-09
-8.23035e-10
2.69108e-08
1.13019e-09
-3.08748e-10
2.65913e-08
1.13048e-09
4.66412e-11
2.58133e-08
1.07014e-09
5.29266e-10
2.43392e-08
9.37986e-10
1.26537e-09
2.18519e-08
7.14343e-10
2.33629e-09
1.80155e-08
3.76039e-10
3.75999e-09
1.26851e-08
-9.44724e-11
5.34352e-09
6.16373e-09
-9.03741e-10
6.67557e-09
-2.10406e-09
6.52193e-09
1.86904e-08
3.19972e-10
-1.87928e-08
2.272e-08
5.91273e-10
-4.17115e-09
2.51344e-08
8.68087e-10
-2.57259e-09
2.66028e-08
1.10906e-09
-1.64328e-09
2.71403e-08
1.25531e-09
-7.22625e-10
2.71507e-08
1.31504e-09
-1.94504e-10
2.68029e-08
1.30528e-09
1.73775e-10
2.5987e-08
1.22185e-09
6.6497e-10
2.44713e-08
1.05168e-09
1.403e-09
2.19475e-08
7.76011e-10
2.46311e-09
1.80903e-08
3.75447e-10
3.8589e-09
1.27597e-08
-1.64526e-10
5.40183e-09
6.23523e-09
-1.07995e-09
6.70194e-09
-2.41455e-09
6.54629e-09
1.88215e-08
3.8331e-10
-1.88844e-08
2.29566e-08
6.63128e-10
-4.20616e-09
2.54085e-08
9.34886e-10
-2.51794e-09
2.68914e-08
1.17667e-09
-1.54976e-09
2.74322e-08
1.31983e-09
-6.04694e-10
2.74269e-08
1.37044e-09
-4.94472e-11
2.70443e-08
1.34769e-09
3.40977e-10
2.61843e-08
1.24276e-09
8.39867e-10
2.46231e-08
1.04074e-09
1.5729e-09
2.20653e-08
7.25641e-10
2.60916e-09
1.81972e-08
2.84113e-10
3.96033e-09
1.28807e-08
-2.94516e-10
5.44756e-09
6.35156e-09
-1.26362e-09
6.71388e-09
-2.62679e-09
6.56429e-09
1.89491e-08
3.95668e-10
-1.89611e-08
2.31998e-08
6.51812e-10
-4.23863e-09
2.56966e-08
8.96215e-10
-2.45743e-09
2.71999e-08
1.12058e-09
-1.44651e-09
2.77438e-08
1.24594e-09
-4.69339e-10
2.7717e-08
1.27808e-09
1.19793e-10
2.72948e-08
1.23615e-09
5.343e-10
2.63892e-08
1.11222e-09
1.03683e-09
2.47852e-08
8.89884e-10
1.75562e-09
2.22009e-08
5.56396e-10
2.7543e-09
1.83351e-08
1.05695e-10
4.04503e-09
1.30453e-08
-4.70216e-10
5.46639e-09
6.50238e-09
-1.42421e-09
6.70436e-09
-2.69643e-09
6.57242e-09
1.90721e-08
3.51776e-10
-1.90278e-08
2.34411e-08
5.50368e-10
-4.26676e-09
2.5988e-08
7.44913e-10
-2.39487e-09
2.75162e-08
9.32103e-10
-1.33911e-09
2.80632e-08
1.0278e-09
-3.28247e-10
2.80123e-08
1.03713e-09
2.92418e-10
2.75506e-08
9.77309e-10
7.21127e-10
2.66014e-08
8.41895e-10
1.22012e-09
2.49598e-08
6.16388e-10
1.91571e-09
2.23584e-08
2.92107e-10
2.86632e-09
1.85086e-08
-1.29808e-10
4.08596e-09
1.32518e-08
-6.56301e-10
5.4436e-09
6.67792e-09
-1.51881e-09
6.66921e-09
-2.58929e-09
6.57111e-09
1.91872e-08
2.59672e-10
-1.90947e-08
2.36676e-08
3.71582e-10
-4.30078e-09
2.62629e-08
4.98374e-10
-2.34798e-09
2.78147e-08
6.32336e-10
-1.25135e-09
2.83646e-08
6.91128e-10
-2.1257e-10
2.82916e-08
6.77632e-10
4.33039e-10
2.77929e-08
6.0714e-10
8.69365e-10
2.68056e-08
4.74055e-10
1.35568e-09
2.51355e-08
2.67493e-10
2.01957e-09
2.25275e-08
-1.6156e-11
2.91681e-09
1.87034e-08
-3.72009e-10
4.06685e-09
1.34759e-08
-8.05531e-10
5.37735e-09
6.85629e-09
-1.51135e-09
6.61265e-09
-2.30055e-09
6.56779e-09
1.92908e-08
1.35494e-10
-1.91661e-08
2.38637e-08
1.51683e-10
-4.35207e-09
2.64971e-08
2.03496e-10
-2.33761e-09
2.80657e-08
2.73681e-10
-1.20918e-09
2.86145e-08
2.94322e-10
-1.51233e-10
2.85218e-08
2.65257e-10
5.05583e-10
2.79918e-08
1.95614e-10
9.4204e-10
2.69733e-08
8.0574e-11
1.41252e-09
2.52837e-08
-8.59189e-11
2.04351e-09
2.26785e-08
-3.02309e-10
2.89177e-09
1.88797e-08
-5.63823e-10
3.99112e-09
1.36694e-08
-8.75356e-10
5.28046e-09
6.99633e-09
-1.38634e-09
6.54846e-09
-1.8727e-09
6.56862e-09
1.93766e-08
5.2807e-12
-1.92457e-08
2.40185e-08
-6.20293e-11
-4.42722e-09
2.66784e-08
-8.59439e-11
-2.36942e-09
2.82537e-08
-8.37938e-11
-1.21696e-09
2.87974e-08
-9.81705e-11
-1.50436e-10
2.86875e-08
-1.32938e-10
5.08664e-10
2.81324e-08
-1.88085e-10
9.3927e-10
2.709e-08
-2.6873e-10
1.39207e-09
2.53882e-08
-3.77382e-10
1.99363e-09
2.27895e-08
-5.0985e-10
2.80653e-09
1.90082e-08
-6.64185e-10
3.88195e-09
1.38018e-08
-8.45967e-10
5.17724e-09
7.0796e-09
-1.15746e-09
6.49345e-09
-1.36958e-09
6.57653e-09
1.94233e-08
-1.07292e-10
-1.93101e-08
2.41178e-08
-2.4311e-10
-4.5124e-09
2.67974e-08
-3.30626e-10
-2.43396e-09
2.83687e-08
-3.90377e-10
-1.2638e-09
2.89039e-08
-4.35421e-10
-1.97342e-10
2.87818e-08
-4.69168e-10
4.58762e-10
2.82101e-08
-5.0051e-10
8.84422e-10
2.71527e-08
-5.36045e-10
1.325e-09
2.54447e-08
-5.77227e-10
1.90794e-09
2.28512e-08
-6.21721e-10
2.70551e-09
1.90782e-08
-6.71323e-10
3.78011e-09
1.3865e-08
-7.3216e-10
5.09943e-09
7.10554e-09
-8.61636e-10
6.4635e-09
-8.57292e-10
6.5932e-09
1.9436e-08
-2.06862e-10
-1.93358e-08
2.41642e-08
-3.9794e-10
-4.57252e-09
2.68542e-08
-5.29804e-10
-2.48996e-09
2.84202e-08
-6.38461e-10
-1.31721e-09
2.89519e-08
-7.08861e-10
-2.57769e-10
2.8828e-08
-7.39908e-10
3.94838e-10
2.8253e-08
-7.45547e-10
8.20102e-10
2.71921e-08
-7.33947e-10
1.25874e-09
2.54841e-08
-7.07376e-10
1.83809e-09
2.28937e-08
-6.68306e-10
2.63678e-09
1.91203e-08
-6.21576e-10
3.72346e-09
1.38933e-08
-5.73996e-10
5.06858e-09
7.10718e-09
-5.40225e-10
6.46446e-09
-3.67006e-10
6.61677e-09
1.94248e-08
-2.99947e-10
-1.93312e-08
2.41564e-08
-5.31103e-10
-4.59763e-09
2.68485e-08
-7.02896e-10
-2.51824e-09
2.84241e-08
-8.57232e-10
-1.35618e-09
2.89699e-08
-9.52387e-10
-3.01888e-10
2.88608e-08
-9.83744e-10
3.52967e-10
2.82996e-08
-9.68307e-10
7.83891e-10
2.72493e-08
-9.14486e-10
1.23063e-09
2.55483e-08
-8.2531e-10
1.81871e-09
2.29594e-08
-7.07213e-10
2.62755e-09
1.91775e-08
-5.67728e-10
3.7278e-09
1.39297e-08
-4.14327e-10
5.08785e-09
7.11681e-09
-2.20611e-10
6.49295e-09
1.06879e-10
6.64284e-09
1.93788e-08
-3.8317e-10
-1.92949e-08
2.40798e-08
-6.52273e-10
-4.57865e-09
2.67706e-08
-8.7355e-10
-2.51909e-09
2.83689e-08
-1.0821e-09
-1.37256e-09
2.89456e-08
-1.20824e-09
-3.20181e-10
2.88682e-08
-1.247e-09
3.40996e-10
2.83372e-08
-1.21909e-09
7.81905e-10
2.73111e-08
-1.13178e-09
1.24348e-09
2.56244e-08
-9.87228e-10
1.84864e-09
2.30359e-08
-7.92587e-10
2.6739e-09
1.92394e-08
-5.58535e-10
3.78732e-09
1.39675e-08
-2.93426e-10
5.15103e-09
7.13469e-09
6.78701e-11
6.54435e-09
5.76313e-10
6.66537e-09
1.92977e-08
-4.64778e-10
-1.92148e-08
2.39374e-08
-7.80108e-10
-4.50976e-09
2.66211e-08
-1.06427e-09
-2.49095e-09
2.82428e-08
-1.33198e-09
-1.37006e-09
2.88558e-08
-1.49272e-09
-3.26945e-10
2.88197e-08
-1.5465e-09
3.36805e-10
2.83304e-08
-1.51546e-09
7.8679e-10
2.73382e-08
-1.40394e-09
1.26532e-09
2.56705e-08
-1.21208e-09
1.89346e-09
2.30812e-08
-9.45472e-10
2.7431e-09
1.92643e-08
-6.17654e-10
3.87684e-09
1.3966e-08
-2.38354e-10
5.24411e-09
7.12921e-09
2.94139e-10
6.61146e-09
1.0182e-09
6.6879e-09
1.91938e-08
-5.38817e-10
-1.91175e-08
2.3747e-08
-9.1101e-10
-4.41875e-09
2.64112e-08
-1.26447e-09
-2.46056e-09
2.8046e-08
-1.58861e-09
-1.37485e-09
2.86897e-08
-1.78502e-09
-3.48274e-10
2.86981e-08
-1.85854e-09
3.06451e-10
2.82566e-08
-1.831e-09
7.59792e-10
2.73048e-08
-1.70409e-09
1.25453e-09
2.56613e-08
-1.47559e-09
1.90949e-09
2.30729e-08
-1.14893e-09
2.79434e-09
1.92313e-08
-7.38119e-10
3.9645e-09
1.39025e-08
-2.55321e-10
5.34817e-09
7.07842e-09
4.32482e-10
6.68834e-09
1.37947e-09
6.71852e-09
1.90777e-08
-5.85737e-10
-1.90274e-08
2.35264e-08
-1.02728e-09
-4.32729e-09
2.6155e-08
-1.44529e-09
-2.44277e-09
2.7786e-08
-1.81299e-09
-1.40171e-09
2.84493e-08
-2.03873e-09
-4.04738e-10
2.85026e-08
-2.12781e-09
2.20651e-10
2.8115e-08
-2.10641e-09
6.67753e-10
2.72124e-08
-1.97355e-09
1.1768e-09
2.56025e-08
-1.72361e-09
1.86266e-09
2.30216e-08
-1.35845e-09
2.79511e-09
1.91556e-08
-8.88778e-10
4.02131e-09
1.37923e-08
-3.28805e-10
5.44149e-09
6.98778e-09
4.74958e-10
6.76693e-09
1.6127e-09
6.757e-09
1.89446e-08
-6.16395e-10
-1.891e-08
2.32793e-08
-1.13077e-09
-4.22535e-09
2.58636e-08
-1.59483e-09
-2.42905e-09
2.74812e-08
-1.98009e-09
-1.44485e-09
2.81586e-08
-2.21384e-09
-4.96369e-10
2.82563e-08
-2.3079e-09
8.84904e-11
2.79278e-08
-2.29089e-09
5.19481e-10
2.70845e-08
-2.15893e-09
1.03546e-09
2.55209e-08
-1.90379e-09
1.75076e-09
2.29595e-08
-1.52602e-09
2.7361e-09
1.90766e-08
-1.03019e-09
4.03146e-09
1.36784e-08
-4.29226e-10
5.50609e-09
6.88639e-09
4.39184e-10
6.83551e-09
1.70151e-09
6.80122e-09
1.87906e-08
-6.51454e-10
-1.87522e-08
2.30105e-08
-1.23565e-09
-4.11026e-09
2.55569e-08
-1.71483e-09
-2.42167e-09
2.71677e-08
-2.08423e-09
-1.50171e-09
2.78573e-08
-2.30042e-09
-5.97614e-10
2.79932e-08
-2.38674e-09
-5.09162e-11
2.77255e-08
-2.36556e-09
3.49354e-10
2.69502e-08
-2.23463e-09
8.5881e-10
2.54459e-08
-1.98629e-09
1.59527e-09
2.29173e-08
-1.61769e-09
2.62917e-09
1.90311e-08
-1.12662e-09
3.99185e-09
1.36039e-08
-5.22872e-10
5.53042e-09
6.8119e-09
3.55418e-10
6.88561e-09
1.67138e-09
6.84636e-09
1.86228e-08
-6.98566e-10
-1.85741e-08
2.27329e-08
-1.33231e-09
-4.01153e-09
2.52595e-08
-1.78909e-09
-2.45039e-09
2.68747e-08
-2.11997e-09
-1.5772e-09
2.75778e-08
-2.30314e-09
-6.97419e-10
2.77484e-08
-2.36527e-09
-1.8806e-10
2.75373e-08
-2.32762e-09
1.78469e-10
2.68288e-08
-2.19291e-09
6.73525e-10
2.53895e-08
-1.95663e-09
1.41744e-09
2.29062e-08
-1.61112e-09
2.48529e-09
1.90327e-08
-1.14925e-09
3.90523e-09
1.35854e-08
-5.76811e-10
5.51065e-09
6.77473e-09
2.60933e-10
6.9147e-09
1.56511e-09
6.8849e-09
1.8468e-08
-7.32904e-10
-1.84348e-08
2.24715e-08
-1.36989e-09
-3.96836e-09
2.49784e-08
-1.77124e-09
-2.52725e-09
2.65963e-08
-2.04608e-09
-1.69394e-09
2.73119e-08
-2.18689e-09
-8.3326e-10
2.75093e-08
-2.21706e-09
-3.45966e-10
2.73404e-08
-2.15685e-09
-8.04461e-13
2.66878e-08
-2.01549e-09
4.77908e-10
2.53123e-08
-1.79555e-09
1.21853e-09
2.28851e-08
-1.48703e-09
2.30823e-09
1.90422e-08
-1.07778e-09
3.77715e-09
1.35888e-08
-5.69489e-10
5.45209e-09
6.75098e-09
1.78709e-10
6.92584e-09
1.40437e-09
6.91362e-09
1.83676e-08
-7.06967e-10
-1.83976e-08
2.22536e-08
-1.26354e-09
-3.99934e-09
2.4713e-08
-1.56663e-09
-2.6712e-09
2.6309e-08
-1.76286e-09
-1.88645e-09
2.70182e-08
-1.85639e-09
-1.04661e-09
2.72193e-08
-1.85865e-09
-5.65769e-10
2.7074e-08
-1.78699e-09
-2.29663e-10
2.64691e-08
-1.65498e-09
2.40656e-10
2.51573e-08
-1.46867e-09
9.8249e-10
2.27975e-08
-1.22459e-09
2.09609e-09
1.90049e-08
-9.04002e-10
3.61795e-09
1.35646e-08
-5.01852e-10
5.37168e-09
6.7096e-09
1.01877e-10
6.93043e-09
1.18043e-09
6.9322e-09
1.83471e-08
-5.55737e-10
-1.85041e-08
2.21014e-08
-9.14677e-10
-4.11326e-09
2.44788e-08
-1.07252e-09
-2.88213e-09
2.60243e-08
-1.17365e-09
-2.14589e-09
2.67041e-08
-1.21965e-09
-1.32796e-09
2.68906e-08
-1.20795e-09
-8.48759e-10
2.67562e-08
-1.15283e-09
-5.11075e-10
2.61952e-08
-1.06739e-09
-3.73242e-11
2.49449e-08
-9.5483e-10
7.26393e-10
2.26576e-08
-8.1236e-10
1.8654e-09
1.8929e-08
-6.29159e-10
3.4443e-09
1.35156e-08
-3.86168e-10
5.28806e-09
6.64729e-09
1.51212e-11
6.94517e-09
8.78214e-10
6.94464e-09
1.83883e-08
-2.43927e-10
-1.87059e-08
2.2029e-08
-2.94265e-10
-4.27141e-09
2.43306e-08
-2.93308e-10
-3.09187e-09
2.58432e-08
-2.90053e-10
-2.40804e-09
2.65145e-08
-2.68175e-10
-1.63559e-09
2.67038e-08
-2.34024e-10
-1.17693e-09
2.65851e-08
-2.10732e-10
-8.37819e-10
2.60626e-08
-2.07549e-10
-3.52507e-10
2.48608e-08
-2.14923e-10
4.45897e-10
2.26216e-08
-2.21349e-10
1.63176e-09
1.89354e-08
-2.19466e-10
3.25998e-09
1.35248e-08
-1.85028e-10
5.19315e-09
6.59594e-09
-3.55332e-11
6.96308e-09
5.16772e-10
6.95012e-09
1.83857e-08
1.62374e-10
-1.87955e-08
2.20267e-08
4.50077e-10
-4.3918e-09
2.43497e-08
5.87934e-10
-3.21145e-09
2.59195e-08
6.80122e-10
-2.54815e-09
2.66689e-08
7.53909e-10
-1.78092e-09
2.69381e-08
7.94363e-10
-1.3085e-09
2.68876e-08
7.83597e-10
-9.56523e-10
2.63981e-08
7.26367e-10
-4.5919e-10
2.51995e-08
6.31854e-10
3.34995e-10
2.29529e-08
5.0886e-10
1.49845e-09
1.92327e-08
3.55704e-10
3.12669e-09
1.37294e-08
1.98965e-10
5.10084e-09
6.61503e-09
9.18341e-11
6.96868e-09
1.83957e-10
6.94013e-09
1.83436e-08
5.52951e-10
-1.87335e-08
2.21369e-08
1.01472e-09
-4.35743e-09
2.46104e-08
1.21762e-09
-3.10325e-09
2.63082e-08
1.37196e-09
-2.39036e-09
2.71562e-08
1.47097e-09
-1.56717e-09
2.74859e-08
1.49677e-09
-1.03614e-09
2.74459e-08
1.46213e-09
-6.4482e-10
2.69128e-08
1.39121e-09
-1.40693e-10
2.5648e-08
1.28852e-09
5.96659e-10
2.33088e-08
1.13279e-09
1.70196e-09
1.94633e-08
9.13789e-10
3.27315e-09
1.38172e-08
6.42555e-10
5.18769e-09
6.5701e-09
3.14448e-10
7.00971e-09
-1.80206e-10
6.92826e-09
1.83785e-08
6.75502e-10
-1.84961e-08
2.23445e-08
1.15539e-09
-4.0987e-09
2.49532e-08
1.41346e-09
-2.79673e-09
2.6709e-08
1.62579e-09
-2.0023e-09
2.75507e-08
1.75077e-09
-1.11502e-09
2.78464e-08
1.78217e-09
-5.76094e-10
2.7746e-08
1.75935e-09
-1.94033e-10
2.71315e-08
1.71672e-09
2.89238e-10
2.57602e-08
1.64414e-09
1.01316e-09
2.3286e-08
1.50928e-09
2.09299e-09
1.93119e-08
1.28836e-09
3.59345e-09
1.36078e-08
9.54811e-10
5.38482e-09
6.45031e-09
4.36063e-10
7.02845e-09
-6.16632e-10
6.884e-09
1.84125e-08
5.59698e-10
-1.82892e-08
2.24553e-08
1.00787e-09
-3.88252e-09
2.50755e-08
1.3543e-09
-2.54808e-09
2.67784e-08
1.633e-09
-1.69714e-09
2.7533e-08
1.79451e-09
-7.85551e-10
2.7743e-08
1.86053e-09
-2.76265e-10
2.75673e-08
1.86684e-09
7.89193e-11
2.68811e-08
1.82507e-09
5.86504e-10
2.54331e-08
1.73884e-09
1.35968e-09
2.28756e-08
1.59957e-09
2.47143e-09
1.8853e-08
1.36438e-09
3.94926e-09
1.32187e-08
9.79764e-10
5.61077e-09
6.33353e-09
2.99198e-10
7.02282e-09
-1.11901e-09
6.83663e-09
1.84546e-08
4.64103e-10
-1.83516e-08
2.24785e-08
8.96699e-10
-3.89945e-09
2.50092e-08
1.34583e-09
-2.50854e-09
2.65998e-08
1.69966e-09
-1.6433e-09
2.72478e-08
1.90179e-09
-7.41001e-10
2.73748e-08
1.99443e-09
-2.46564e-10
2.71499e-08
2.0049e-09
1.00813e-10
2.6446e-08
1.93334e-09
6.09034e-10
2.49882e-08
1.77883e-09
1.43014e-09
2.24174e-08
1.54449e-09
2.63687e-09
1.84241e-08
1.21035e-09
4.15698e-09
1.29205e-08
7.37511e-10
5.75433e-09
6.30401e-09
-7.87227e-11
7.00199e-09
-1.64648e-09
6.83491e-09
1.85636e-08
4.93729e-10
-1.85877e-08
2.25711e-08
9.57077e-10
-4.05769e-09
2.50162e-08
1.4739e-09
-2.56247e-09
2.65314e-08
1.88548e-09
-1.68984e-09
2.71362e-08
2.12454e-09
-8.15741e-10
2.72527e-08
2.23118e-09
-3.40983e-10
2.70329e-08
2.22717e-09
1.02369e-11
2.63227e-08
2.11042e-09
5.46472e-10
2.48613e-08
1.87796e-09
1.37596e-09
2.23082e-08
1.52341e-09
2.58768e-09
1.83597e-08
1.0455e-09
4.12623e-09
1.29368e-08
4.44061e-10
5.72856e-09
6.40466e-09
-4.95265e-10
6.96008e-09
-2.07083e-09
6.8339e-09
1.87223e-08
6.11121e-10
-1.88369e-08
2.28047e-08
1.11812e-09
-4.23797e-09
2.52489e-08
1.62923e-09
-2.59361e-09
2.67751e-08
2.05042e-09
-1.68462e-09
2.74175e-08
2.30002e-09
-8.10715e-10
2.75607e-08
2.40016e-09
-3.04154e-10
2.73273e-08
2.37646e-09
9.30288e-11
2.65789e-08
2.224e-09
6.45153e-10
2.50786e-08
1.93145e-09
1.45829e-09
2.25168e-08
1.49463e-09
2.60281e-09
1.85829e-08
9.18986e-10
4.07298e-09
1.31664e-08
2.26712e-10
5.64634e-09
6.56255e-09
-7.9652e-10
6.91706e-09
-2.31275e-09
6.8096e-09
1.89085e-08
7.03409e-10
-1.90004e-08
2.31494e-08
1.21413e-09
-4.3359e-09
2.56697e-08
1.65986e-09
-2.54946e-09
2.72573e-08
2.04532e-09
-1.58055e-09
2.79389e-08
2.27374e-09
-6.5271e-10
2.80622e-08
2.35609e-09
-7.57838e-11
2.77637e-08
2.31166e-09
3.679e-10
2.69404e-08
2.13457e-09
9.18843e-10
2.53731e-08
1.81587e-09
1.69058e-09
2.27713e-08
1.35508e-09
2.75036e-09
1.88268e-08
7.63438e-10
4.10992e-09
1.33999e-08
6.3088e-11
5.60093e-09
6.70264e-09
-9.65757e-10
6.87677e-09
-2.37055e-09
6.7648e-09
1.90879e-08
6.72484e-10
-1.90578e-08
2.35134e-08
1.12651e-09
-4.33945e-09
2.61271e-08
1.4884e-09
-2.44366e-09
2.77612e-08
1.8188e-09
-1.40865e-09
2.84338e-08
2.01195e-09
-4.11499e-10
2.8494e-08
2.07086e-09
2.2501e-10
2.81136e-08
2.01165e-09
6.81352e-10
2.72095e-08
1.83189e-09
1.20915e-09
2.55727e-08
1.52439e-09
1.9321e-09
2.29294e-08
1.09286e-09
2.91077e-09
1.89828e-08
5.5215e-10
4.16416e-09
1.35716e-08
-8.44618e-11
5.56589e-09
6.8232e-09
-1.02936e-09
6.8193e-09
-2.25174e-09
6.70743e-09
1.92331e-08
5.25086e-10
-1.90867e-08
2.38184e-08
8.76139e-10
-4.33705e-09
2.64991e-08
1.15895e-09
-2.35341e-09
2.8144e-08
1.42942e-09
-1.25774e-09
2.87823e-08
1.58477e-09
-2.13218e-10
2.87759e-08
1.62188e-09
4.53559e-10
2.8319e-08
1.5587e-09
9.08675e-10
2.73442e-08
1.39412e-09
1.41232e-09
2.56542e-08
1.12579e-09
2.08958e-09
2.29909e-08
7.59961e-10
2.99829e-09
1.90679e-08
3.11971e-10
4.16626e-09
1.37025e-08
-2.12998e-10
5.49765e-09
6.94072e-09
-9.98717e-10
6.73506e-09
-1.96501e-09
6.65558e-09
1.93515e-08
3.3393e-10
-1.91607e-08
2.40512e-08
5.72006e-10
-4.39677e-09
2.67612e-08
7.89131e-10
-2.34155e-09
2.83909e-08
9.95388e-10
-1.19739e-09
2.89875e-08
1.10814e-09
-1.22044e-10
2.89259e-08
1.1273e-09
5.54078e-10
2.84079e-08
1.06744e-09
1.00732e-09
2.738e-08
9.29634e-10
1.49095e-09
2.56587e-08
7.16597e-10
2.12971e-09
2.29974e-08
4.36281e-10
2.98476e-09
1.9113e-08
1.02097e-10
4.09475e-09
1.37993e-08
-2.85546e-10
5.38702e-09
7.0328e-09
-8.69484e-10
6.63818e-09
-1.55525e-09
6.62336e-09
1.9455e-08
1.72603e-10
-1.92933e-08
2.42234e-08
3.18719e-10
-4.51494e-09
2.69379e-08
4.77715e-10
-2.40324e-09
2.85432e-08
6.09742e-10
-1.22029e-09
2.91035e-08
6.75195e-10
-1.28481e-10
2.89973e-08
6.79202e-10
5.52646e-10
2.84327e-08
6.29665e-10
1.00042e-09
2.73682e-08
5.28724e-10
1.46347e-09
2.56315e-08
3.80989e-10
2.07058e-09
2.29826e-08
1.94445e-10
2.88919e-09
1.91353e-08
-2.15161e-11
3.96955e-09
1.38576e-08
-2.68119e-10
5.25894e-09
7.07888e-09
-6.45574e-10
6.55364e-09
-1.08996e-09
6.61303e-09
1.95648e-08
1.75249e-11
-1.94088e-08
2.43311e-08
2.05099e-10
-4.65169e-09
2.70473e-08
2.65391e-10
-2.50323e-09
2.86466e-08
2.99398e-10
-1.28879e-09
2.91876e-08
3.25373e-10
-1.91737e-10
2.9053e-08
3.24208e-10
4.88413e-10
2.84587e-08
2.92087e-10
9.30227e-10
2.7373e-08
2.35021e-10
1.37759e-09
2.56311e-08
1.57809e-10
1.96302e-09
2.29965e-08
6.51972e-11
2.7618e-09
1.91767e-08
-3.83274e-11
3.83451e-09
1.39158e-08
-1.54777e-10
5.14533e-09
7.11446e-09
-3.4284e-10
6.4965e-09
-6.01183e-10
6.62478e-09
1.95658e-08
-1.95479e-08
2.45137e-08
-4.74232e-09
2.72891e-08
-2.50959e-09
2.88595e-08
-1.27095e-09
2.9369e-08
-1.84285e-10
2.92117e-08
4.81124e-10
2.85937e-08
9.09439e-10
2.7484e-08
1.34401e-09
2.57263e-08
1.91461e-09
2.30909e-08
2.69971e-09
1.92852e-08
3.76646e-09
1.40411e-08
5.08842e-09
7.22549e-09
6.47192e-09
6.62398e-09
7.08792e-09
-1.51497e-09
-2.2472e-08
1.10605e-08
-1.51929e-09
-3.8332e-09
1.28285e-08
-1.4073e-09
2.50187e-10
1.40752e-08
-1.2456e-09
1.4906e-09
1.46595e-08
-9.26439e-10
2.4794e-09
1.44339e-08
-5.0243e-10
3.16263e-09
1.3317e-08
4.99289e-11
3.64986e-09
1.1227e-08
7.22334e-10
4.12989e-09
8.20682e-09
1.34705e-09
4.70447e-09
4.49079e-09
1.7167e-09
5.34176e-09
6.41058e-10
1.44775e-09
6.08299e-09
-2.03855e-09
-2.84581e-10
7.11225e-09
-2.25825e-09
-3.10066e-09
7.81947e-09
-4.93544e-09
6.51396e-09
6.47829e-09
-2.03735e-09
-2.52167e-08
1.05019e-08
-2.57034e-09
-7.34169e-09
1.26937e-08
-2.61866e-09
-3.0675e-09
1.46068e-08
-2.51492e-09
-1.35749e-09
1.62639e-08
-2.24943e-09
1.37538e-10
1.7446e-08
-1.85069e-09
1.38034e-09
1.81358e-08
-1.33151e-09
2.44228e-09
1.83052e-08
-6.94507e-10
3.53503e-09
1.7791e-08
1.47908e-11
4.70901e-09
1.64507e-08
6.13426e-10
5.89784e-09
1.42082e-08
6.70011e-10
7.08088e-09
1.05286e-08
-1.39306e-10
8.1528e-09
5.31281e-09
-2.06593e-09
9.49221e-09
-3.72768e-09
9.49013e-09
6.33744e-09
-2.44451e-09
-2.46948e-08
1.00949e-08
-3.28194e-09
-7.16059e-09
1.21122e-08
-3.35612e-09
-3.53217e-09
1.38581e-08
-3.16813e-09
-2.23784e-09
1.53635e-08
-2.867e-09
-9.75193e-10
1.65105e-08
-2.50996e-09
1.16192e-10
1.72756e-08
-2.10201e-09
1.12107e-09
1.76508e-08
-1.61569e-09
2.20453e-09
1.75882e-08
-1.06366e-09
3.42149e-09
1.69205e-08
-5.07706e-10
4.7674e-09
1.52332e-08
-1.39439e-10
6.25656e-09
1.205e-08
-2.43677e-10
7.91104e-09
6.73172e-09
-1.00568e-09
9.91724e-09
-1.34269e-09
1.02299e-08
6.21766e-09
-2.63984e-09
-2.47372e-08
9.81955e-09
-3.62312e-09
-7.30722e-09
1.17416e-08
-3.67978e-09
-3.87755e-09
1.34145e-08
-3.39467e-09
-2.70893e-09
1.48327e-08
-3.01165e-09
-1.571e-09
1.58559e-08
-2.63204e-09
-5.97828e-10
1.64938e-08
-2.25398e-09
2.6648e-10
1.67516e-08
-1.84505e-09
1.23687e-09
1.65524e-08
-1.37636e-09
2.42028e-09
1.57176e-08
-8.72078e-10
3.89628e-09
1.39404e-08
-4.42129e-10
5.74455e-09
1.07934e-08
-2.639e-10
7.96321e-09
5.75311e-09
-3.48208e-10
1.04184e-08
-2.17856e-11
1.06376e-08
6.10468e-09
-2.68236e-09
-2.47473e-08
9.57025e-09
-3.69177e-09
-7.44688e-09
1.14088e-08
-3.68987e-09
-4.20371e-09
1.30139e-08
-3.30853e-09
-3.11049e-09
1.43595e-08
-2.84119e-09
-2.02489e-09
1.52909e-08
-2.41629e-09
-1.11673e-09
1.58383e-08
-2.0344e-09
-3.29908e-10
1.60319e-08
-1.66093e-09
5.55325e-10
1.57925e-08
-1.25697e-09
1.71519e-09
1.49108e-08
-8.32571e-10
3.31336e-09
1.30447e-08
-4.57211e-10
5.49082e-09
9.82017e-09
-2.34977e-10
8.14573e-09
5.02649e-09
-6.96972e-11
1.08103e-08
5.38432e-10
1.0847e-08
5.9983e-09
-2.6124e-09
-2.46993e-08
9.33833e-09
-3.55468e-09
-7.521e-09
1.11144e-08
-3.46129e-09
-4.45693e-09
1.26775e-08
-2.99489e-09
-3.41059e-09
1.39901e-08
-2.47108e-09
-2.33443e-09
1.48822e-08
-2.01489e-09
-1.44084e-09
1.53835e-08
-1.62848e-09
-6.80712e-10
1.55546e-08
-1.28116e-09
1.53935e-10
1.53204e-08
-9.39622e-10
1.29418e-09
1.44432e-08
-6.14521e-10
2.97335e-09
1.25443e-08
-3.54617e-10
5.36407e-09
9.27882e-09
-2.01142e-10
8.27017e-09
4.62194e-09
9.45972e-12
1.10133e-08
6.98374e-10
1.0917e-08
5.9071e-09
-2.43906e-09
-2.4681e-08
9.14519e-09
-3.23555e-09
-7.62313e-09
1.08655e-08
-3.0466e-09
-4.67635e-09
1.23955e-08
-2.52883e-09
-3.63669e-09
1.36867e-08
-1.98891e-09
-2.54024e-09
1.45577e-08
-1.53386e-09
-1.62796e-09
1.50403e-08
-1.16116e-09
-8.73552e-10
1.52133e-08
-8.46616e-10
-6.3991e-11
1.50044e-08
-5.69065e-10
1.06451e-09
1.415e-08
-3.45262e-10
2.78908e-09
1.22421e-08
-2.10648e-10
5.29349e-09
8.95412e-09
-1.60477e-10
8.32424e-09
4.37566e-09
-1.18659e-12
1.10893e-08
6.43909e-10
1.09085e-08
5.8265e-09
-2.16017e-09
-2.46968e-08
8.98894e-09
-2.7461e-09
-7.76475e-09
1.06596e-08
-2.48156e-09
-4.87923e-09
1.21602e-08
-1.95615e-09
-3.82122e-09
1.343e-08
-1.44274e-09
-2.68143e-09
1.42867e-08
-1.02415e-09
-1.74321e-09
1.47675e-08
-6.8953e-10
-9.84195e-10
1.49555e-08
-4.21411e-10
-1.7762e-10
1.47749e-08
-2.08987e-10
9.49944e-10
1.39421e-08
-7.65051e-11
2.69892e-09
1.20306e-08
-5.32121e-11
5.25727e-09
8.72841e-09
-1.09325e-10
8.34395e-09
4.20084e-09
-5.22785e-11
1.11044e-08
4.59385e-10
1.08609e-08
5.75594e-09
-1.78224e-09
-2.47162e-08
8.86134e-09
-2.11538e-09
-7.88718e-09
1.04907e-08
-1.79e-09
-5.0558e-09
1.19663e-08
-1.29482e-09
-3.98031e-09
1.32153e-08
-8.48469e-10