/*--------------------------------*- C++ -*----------------------------------*\
| =========                 |                                                 |
| \\      /  F ield         | OpenFOAM: The Open Source CFD Toolbox           |
|  \\    /   O peration     | Version:  5.0                                   |
|   \\  /    A nd           | Web:      www.OpenFOAM.org                      |
|    \\/     M anipulation  |                                                 |
\*---------------------------------------------------------------------------*/
FoamFile
{
    version     2.0;
    format      ascii;
    class       volVectorField;
    location    "200";
    object      U;
}
// * * * * * * * * * * * * * * * * * * * * * * * * * * * * * * * * * * * * * //

dimensions      [0 1 -1 0 0 0 0];

internalField   nonuniform List<vector> 
1568
(
(-3.67584e-13 -5.49958e-13 0)
(-1.63287e-13 4.78029e-14 0)
(3.5196e-12 -3.23002e-12 0)
(9.05085e-12 -2.99697e-12 0)
(1.34904e-11 -2.28938e-12 0)
(1.90396e-11 -3.43668e-12 0)
(2.58602e-11 -3.62819e-12 0)
(3.26839e-11 -3.61634e-12 0)
(3.97751e-11 -3.84624e-12 0)
(4.72488e-11 -3.97637e-12 0)
(5.48237e-11 -3.9955e-12 0)
(6.2392e-11 -3.981e-12 0)
(6.99256e-11 -3.92568e-12 0)
(7.73372e-11 -3.83312e-12 0)
(8.45386e-11 -3.71879e-12 0)
(9.14716e-11 -3.56588e-12 0)
(9.80686e-11 -3.38013e-12 0)
(1.04279e-10 -3.17732e-12 0)
(1.10052e-10 -2.94306e-12 0)
(1.15343e-10 -2.68356e-12 0)
(1.20106e-10 -2.39623e-12 0)
(1.24322e-10 -2.10779e-12 0)
(1.27962e-10 -1.77514e-12 0)
(1.30953e-10 -1.34251e-12 0)
(1.33319e-10 -9.14103e-13 0)
(1.35083e-10 -5.77879e-13 0)
(1.3621e-10 -2.39716e-13 0)
(1.36644e-10 -1.74251e-14 0)
(1.36367e-10 2.12914e-13 0)
(1.35398e-10 4.6629e-13 0)
(1.33786e-10 8.08154e-13 0)
(1.31581e-10 1.18538e-12 0)
(1.28784e-10 1.62907e-12 0)
(1.25385e-10 1.94995e-12 0)
(1.21426e-10 2.26196e-12 0)
(1.16947e-10 2.51045e-12 0)
(1.11968e-10 2.7823e-12 0)
(1.0652e-10 2.99707e-12 0)
(1.00664e-10 3.21971e-12 0)
(9.44212e-11 3.39315e-12 0)
(8.78439e-11 3.55273e-12 0)
(8.10026e-11 3.65582e-12 0)
(7.39581e-11 3.75261e-12 0)
(6.67607e-11 3.80706e-12 0)
(5.94916e-11 3.83541e-12 0)
(5.22282e-11 3.80711e-12 0)
(4.50516e-11 3.75199e-12 0)
(3.80338e-11 3.63897e-12 0)
(3.12664e-11 3.48594e-12 0)
(2.48529e-11 3.26718e-12 0)
(1.88661e-11 3.01009e-12 0)
(1.34144e-11 2.70722e-12 0)
(8.8146e-12 2.24944e-12 0)
(4.75194e-12 2.05134e-12 0)
(1.77486e-12 1.17868e-12 0)
(2.6434e-13 4.9173e-13 0)
(1.06951e-12 -2.45118e-12 0)
(5.88093e-13 -4.76132e-12 0)
(4.60646e-12 -5.86092e-12 0)
(6.77142e-12 -6.74777e-12 0)
(1.23547e-11 -8.54448e-12 0)
(1.77377e-11 -9.32574e-12 0)
(2.35506e-11 -9.98071e-12 0)
(3.00812e-11 -1.0572e-11 0)
(3.67693e-11 -1.09916e-11 0)
(4.36491e-11 -1.12456e-11 0)
(5.06634e-11 -1.13386e-11 0)
(5.77571e-11 -1.1331e-11 0)
(6.47871e-11 -1.12099e-11 0)
(7.16765e-11 -1.09649e-11 0)
(7.83908e-11 -1.06007e-11 0)
(8.48431e-11 -1.01557e-11 0)
(9.09879e-11 -9.61141e-12 0)
(9.67757e-11 -8.99043e-12 0)
(1.02159e-10 -8.28935e-12 0)
(1.07089e-10 -7.54017e-12 0)
(1.11534e-10 -6.72449e-12 0)
(1.15456e-10 -5.87003e-12 0)
(1.18841e-10 -4.96643e-12 0)
(1.21659e-10 -4.06255e-12 0)
(1.2392e-10 -3.17462e-12 0)
(1.2558e-10 -2.25165e-12 0)
(1.26625e-10 -1.2307e-12 0)
(1.2701e-10 -1.51489e-13 0)
(1.26774e-10 9.55578e-13 0)
(1.25898e-10 2.00547e-12 0)
(1.24399e-10 2.97196e-12 0)
(1.22328e-10 3.8439e-12 0)
(1.19736e-10 4.72165e-12 0)
(1.16617e-10 5.56207e-12 0)
(1.12956e-10 6.38864e-12 0)
(1.08783e-10 7.15696e-12 0)
(1.04147e-10 7.88257e-12 0)
(9.90922e-11 8.52573e-12 0)
(9.36225e-11 9.11488e-12 0)
(8.78181e-11 9.61992e-12 0)
(8.17071e-11 1.0057e-11 0)
(7.53153e-11 1.03971e-11 0)
(6.87211e-11 1.06632e-11 0)
(6.20123e-11 1.08105e-11 0)
(5.52303e-11 1.08661e-11 0)
(4.84573e-11 1.08059e-11 0)
(4.17495e-11 1.06327e-11 0)
(3.52035e-11 1.03292e-11 0)
(2.89067e-11 9.89267e-12 0)
(2.29148e-11 9.30398e-12 0)
(1.73368e-11 8.60455e-12 0)
(1.23175e-11 7.60586e-12 0)
(7.81588e-12 6.50515e-12 0)
(4.37164e-12 5.1422e-12 0)
(1.76346e-12 3.42419e-12 0)
(1.12906e-13 1.46409e-12 0)
(-1.76672e-13 -3.2503e-12 0)
(6.39786e-13 -5.73861e-12 0)
(3.01982e-12 -9.98373e-12 0)
(7.34243e-12 -1.17521e-11 0)
(1.08173e-11 -1.3574e-11 0)
(1.58256e-11 -1.5335e-11 0)
(2.15861e-11 -1.63386e-11 0)
(2.74428e-11 -1.72528e-11 0)
(3.35453e-11 -1.79534e-11 0)
(4.00166e-11 -1.8362e-11 0)
(4.65634e-11 -1.85187e-11 0)
(5.30699e-11 -1.84842e-11 0)
(5.95707e-11 -1.82671e-11 0)
(6.59812e-11 -1.78627e-11 0)
(7.21931e-11 -1.72998e-11 0)
(7.81757e-11 -1.65751e-11 0)
(8.38807e-11 -1.57036e-11 0)
(8.92524e-11 -1.47029e-11 0)
(9.42431e-11 -1.35794e-11 0)
(9.88219e-11 -1.23494e-11 0)
(1.0295e-10 -1.10216e-11 0)
(1.06604e-10 -9.61656e-12 0)
(1.09751e-10 -8.13885e-12 0)
(1.12384e-10 -6.62728e-12 0)
(1.14467e-10 -5.08533e-12 0)
(1.1598e-10 -3.5204e-12 0)
(1.16923e-10 -1.88672e-12 0)
(1.17294e-10 -2.35522e-13 0)
(1.17088e-10 1.44553e-12 0)
(1.16317e-10 3.07708e-12 0)
(1.14999e-10 4.69387e-12 0)
(1.13133e-10 6.2317e-12 0)
(1.10725e-10 7.75197e-12 0)
(1.07807e-10 9.17071e-12 0)
(1.04408e-10 1.05372e-11 0)
(1.00553e-10 1.17784e-11 0)
(9.62572e-11 1.29578e-11 0)
(9.15556e-11 1.39976e-11 0)
(8.65019e-11 1.494e-11 0)
(8.11061e-11 1.57403e-11 0)
(7.54179e-11 1.64234e-11 0)
(6.95074e-11 1.69577e-11 0)
(6.34127e-11 1.73738e-11 0)
(5.71771e-11 1.76271e-11 0)
(5.08857e-11 1.77284e-11 0)
(4.45905e-11 1.76431e-11 0)
(3.83687e-11 1.73689e-11 0)
(3.22833e-11 1.68739e-11 0)
(2.64205e-11 1.61732e-11 0)
(2.09138e-11 1.5202e-11 0)
(1.56885e-11 1.3979e-11 0)
(1.10215e-11 1.25144e-11 0)
(7.16936e-12 1.05927e-11 0)
(3.67721e-12 8.32004e-12 0)
(1.31832e-12 5.5489e-12 0)
(3.07211e-14 2.24158e-12 0)
(-4.53789e-13 -2.92207e-12 0)
(1.45283e-12 -8.8933e-12 0)
(3.11474e-12 -1.19168e-11 0)
(6.01761e-12 -1.57321e-11 0)
(9.89373e-12 -1.82999e-11 0)
(1.43949e-11 -2.02035e-11 0)
(1.95231e-11 -2.17812e-11 0)
(2.48315e-11 -2.31061e-11 0)
(3.04979e-11 -2.39956e-11 0)
(3.64195e-11 -2.45113e-11 0)
(4.23996e-11 -2.47792e-11 0)
(4.84174e-11 -2.47478e-11 0)
(5.44039e-11 -2.44468e-11 0)
(6.02716e-11 -2.39138e-11 0)
(6.59955e-11 -2.31563e-11 0)
(7.15118e-11 -2.2176e-11 0)
(7.67614e-11 -2.10151e-11 0)
(8.17114e-11 -1.96666e-11 0)
(8.63228e-11 -1.81691e-11 0)
(9.05499e-11 -1.65203e-11 0)
(9.43625e-11 -1.47549e-11 0)
(9.77321e-11 -1.28702e-11 0)
(1.00638e-10 -1.09129e-11 0)
(1.03056e-10 -8.87334e-12 0)
(1.04968e-10 -6.809e-12 0)
(1.06357e-10 -4.67506e-12 0)
(1.07222e-10 -2.51156e-12 0)
(1.07571e-10 -3.01547e-13 0)
(1.07414e-10 1.88997e-12 0)
(1.06754e-10 4.08255e-12 0)
(1.05565e-10 6.20576e-12 0)
(1.03852e-10 8.28471e-12 0)
(1.01644e-10 1.02675e-11 0)
(9.89631e-11 1.21887e-11 0)
(9.58192e-11 1.39863e-11 0)
(9.22481e-11 1.56905e-11 0)
(8.82879e-11 1.72387e-11 0)
(8.39528e-11 1.86761e-11 0)
(7.9274e-11 1.99379e-11 0)
(7.4307e-11 2.10458e-11 0)
(6.90874e-11 2.19697e-11 0)
(6.36404e-11 2.27343e-11 0)
(5.80241e-11 2.32848e-11 0)
(5.22973e-11 2.36523e-11 0)
(4.65038e-11 2.3781e-11 0)
(4.07056e-11 2.36786e-11 0)
(3.49558e-11 2.33073e-11 0)
(2.93631e-11 2.26569e-11 0)
(2.39787e-11 2.16898e-11 0)
(1.88617e-11 2.04125e-11 0)
(1.41996e-11 1.87526e-11 0)
(9.91041e-12 1.67095e-11 0)
(6.0753e-12 1.41498e-11 0)
(3.32927e-12 1.11049e-11 0)
(1.2608e-12 7.28062e-12 0)
(6.44003e-14 2.88683e-12 0)
(3.26217e-13 -3.64364e-12 0)
(8.05364e-13 -9.65707e-12 0)
(2.91643e-12 -1.48461e-11 0)
(5.52829e-12 -1.86706e-11 0)
(8.90828e-12 -2.19686e-11 0)
(1.29883e-11 -2.44522e-11 0)
(1.75059e-11 -2.65226e-11 0)
(2.22792e-11 -2.81401e-11 0)
(2.74544e-11 -2.92367e-11 0)
(3.28488e-11 -2.99305e-11 0)
(3.82847e-11 -3.02606e-11 0)
(4.37464e-11 -3.02402e-11 0)
(4.91858e-11 -2.98957e-11 0)
(5.45488e-11 -2.92431e-11 0)
(5.97715e-11 -2.82949e-11 0)
(6.47967e-11 -2.71024e-11 0)
(6.95926e-11 -2.56614e-11 0)
(7.4114e-11 -2.40114e-11 0)
(7.83153e-11 -2.21643e-11 0)
(8.21753e-11 -2.01606e-11 0)
(8.5661e-11 -1.79988e-11 0)
(8.87411e-11 -1.57187e-11 0)
(9.13946e-11 -1.33228e-11 0)
(9.35999e-11 -1.08519e-11 0)
(9.53411e-11 -8.29813e-12 0)
(9.66115e-11 -5.69989e-12 0)
(9.74064e-11 -3.04228e-12 0)
(9.77348e-11 -3.69936e-13 0)
(9.76002e-11 2.30811e-12 0)
(9.70029e-11 4.93463e-12 0)
(9.59408e-11 7.50483e-12 0)
(9.43996e-11 9.99454e-12 0)
(9.23875e-11 1.24109e-11 0)
(8.99347e-11 1.47193e-11 0)
(8.70712e-11 1.6922e-11 0)
(8.38187e-11 1.89959e-11 0)
(8.02027e-11 2.09302e-11 0)
(7.62497e-11 2.26876e-11 0)
(7.19835e-11 2.4279e-11 0)
(6.74422e-11 2.5669e-11 0)
(6.26728e-11 2.68515e-11 0)
(5.77137e-11 2.77972e-11 0)
(5.26027e-11 2.85172e-11 0)
(4.73748e-11 2.89624e-11 0)
(4.20849e-11 2.91337e-11 0)
(3.6797e-11 2.8999e-11 0)
(3.15653e-11 2.85449e-11 0)
(2.64496e-11 2.77427e-11 0)
(2.15512e-11 2.65724e-11 0)
(1.697e-11 2.49744e-11 0)
(1.26298e-11 2.29145e-11 0)
(8.75817e-12 2.0378e-11 0)
(5.6659e-12 1.72765e-11 0)
(2.77223e-12 1.34246e-11 0)
(9.24477e-13 8.79885e-12 0)
(-2.49694e-14 3.40862e-12 0)
(1.22243e-14 -4.33699e-12 0)
(8.49876e-13 -1.09002e-11 0)
(2.52423e-12 -1.67788e-11 0)
(4.98248e-12 -2.15052e-11 0)
(7.98631e-12 -2.53659e-11 0)
(1.15842e-11 -2.8438e-11 0)
(1.55269e-11 -3.09752e-11 0)
(1.98198e-11 -3.28683e-11 0)
(2.44736e-11 -3.41601e-11 0)
(2.92773e-11 -3.50111e-11 0)
(3.41411e-11 -3.54297e-11 0)
(3.90607e-11 -3.54205e-11 0)
(4.39699e-11 -3.50113e-11 0)
(4.88023e-11 -3.42407e-11 0)
(5.35051e-11 -3.31454e-11 0)
(5.80388e-11 -3.17412e-11 0)
(6.23633e-11 -3.00566e-11 0)
(6.64364e-11 -2.81258e-11 0)
(7.02245e-11 -2.59719e-11 0)
(7.37009e-11 -2.36159e-11 0)
(7.68408e-11 -2.10919e-11 0)
(7.96158e-11 -1.84191e-11 0)
(8.20069e-11 -1.56211e-11 0)
(8.39993e-11 -1.27177e-11 0)
(8.55736e-11 -9.73049e-12 0)
(8.6722e-11 -6.67584e-12 0)
(8.74485e-11 -3.57793e-12 0)
(8.77509e-11 -4.55243e-13 0)
(8.76321e-11 2.65506e-12 0)
(8.7094e-11 5.73146e-12 0)
(8.61315e-11 8.7367e-12 0)
(8.47444e-11 1.16556e-11 0)
(8.29458e-11 1.44774e-11 0)
(8.07504e-11 1.71945e-11 0)
(7.81804e-11 1.97811e-11 0)
(7.52558e-11 2.2219e-11 0)
(7.19959e-11 2.44859e-11 0)
(6.84306e-11 2.65614e-11 0)
(6.45875e-11 2.84265e-11 0)
(6.04989e-11 3.00693e-11 0)
(5.61999e-11 3.14657e-11 0)
(5.17271e-11 3.25957e-11 0)
(4.7112e-11 3.34336e-11 0)
(4.23965e-11 3.39611e-11 0)
(3.76354e-11 3.4159e-11 0)
(3.28715e-11 3.40053e-11 0)
(2.81566e-11 3.34651e-11 0)
(2.35901e-11 3.25143e-11 0)
(1.91916e-11 3.11281e-11 0)
(1.50079e-11 2.92378e-11 0)
(1.12769e-11 2.67975e-11 0)
(7.87312e-12 2.37912e-11 0)
(4.72433e-12 2.00727e-11 0)
(2.55542e-12 1.55497e-11 0)
(1.00496e-12 1.0207e-11 0)
(3.74037e-14 3.85841e-12 0)
(-1.0388e-13 -4.51944e-12 0)
(8.854e-13 -1.20786e-11 0)
(2.28016e-12 -1.84981e-11 0)
(4.40548e-12 -2.39479e-11 0)
(7.03493e-12 -2.84163e-11 0)
(1.01164e-11 -3.20492e-11 0)
(1.35658e-11 -3.49464e-11 0)
(1.74045e-11 -3.71003e-11 0)
(2.15046e-11 -3.86283e-11 0)
(2.57172e-11 -3.96356e-11 0)
(3.00225e-11 -4.01123e-11 0)
(3.439e-11 -4.0097e-11 0)
(3.87429e-11 -3.964e-11 0)
(4.30249e-11 -3.87787e-11 0)
(4.72016e-11 -3.75427e-11 0)
(5.12313e-11 -3.59597e-11 0)
(5.50708e-11 -3.4065e-11 0)
(5.8687e-11 -3.18858e-11 0)
(6.20532e-11 -2.94523e-11 0)
(6.51429e-11 -2.67902e-11 0)
(6.79296e-11 -2.39308e-11 0)
(7.03962e-11 -2.09005e-11 0)
(7.25237e-11 -1.77237e-11 0)
(7.42936e-11 -1.44278e-11 0)
(7.56941e-11 -1.10404e-11 0)
(7.67186e-11 -7.57907e-12 0)
(7.73661e-11 -4.07175e-12 0)
(7.76392e-11 -5.46112e-13 0)
(7.75404e-11 2.97028e-12 0)
(7.7067e-11 6.44595e-12 0)
(7.62154e-11 9.8556e-12 0)
(7.4989e-11 1.31777e-11 0)
(7.33974e-11 1.63906e-11 0)
(7.14523e-11 1.94747e-11 0)
(6.917e-11 2.24112e-11 0)
(6.65719e-11 2.51729e-11 0)
(6.36769e-11 2.77429e-11 0)
(6.05094e-11 3.01016e-11 0)
(5.7096e-11 3.22255e-11 0)
(5.34635e-11 3.4092e-11 0)
(4.96447e-11 3.56786e-11 0)
(4.56703e-11 3.69621e-11 0)
(4.15733e-11 3.79176e-11 0)
(3.73894e-11 3.85236e-11 0)
(3.31641e-11 3.8751e-11 0)
(2.89407e-11 3.85718e-11 0)
(2.47673e-11 3.79552e-11 0)
(2.07116e-11 3.68661e-11 0)
(1.68293e-11 3.52584e-11 0)
(1.32007e-11 3.31001e-11 0)
(9.80671e-12 3.03197e-11 0)
(6.78274e-12 2.68251e-11 0)
(4.37501e-12 2.26066e-11 0)
(2.14812e-12 1.75177e-11 0)
(6.70014e-13 1.13296e-11 0)
(3.75887e-14 4.30381e-12 0)
(1.34916e-14 -4.80827e-12 0)
(7.68798e-13 -1.30028e-11 0)
(1.96538e-12 -2.0073e-11 0)
(3.73535e-12 -2.61003e-11 0)
(5.99745e-12 -3.10946e-11 0)
(8.68207e-12 -3.51374e-11 0)
(1.16901e-11 -3.83086e-11 0)
(1.50072e-11 -4.07218e-11 0)
(1.85303e-11 -4.24717e-11 0)
(2.21776e-11 -4.35979e-11 0)
(2.5929e-11 -4.41348e-11 0)
(2.97244e-11 -4.41337e-11 0)
(3.35048e-11 -4.36422e-11 0)
(3.72311e-11 -4.26996e-11 0)
(4.08668e-11 -4.13402e-11 0)
(4.43734e-11 -3.96024e-11 0)
(4.77185e-11 -3.75195e-11 0)
(5.08709e-11 -3.51218e-11 0)
(5.38048e-11 -3.2442e-11 0)
(5.64976e-11 -2.95134e-11 0)
(5.89285e-11 -2.63646e-11 0)
(6.10798e-11 -2.30237e-11 0)
(6.29344e-11 -1.9526e-11 0)
(6.44766e-11 -1.58964e-11 0)
(6.56987e-11 -1.21634e-11 0)
(6.6595e-11 -8.35379e-12 0)
(6.71629e-11 -4.49577e-12 0)
(6.74035e-11 -6.17387e-13 0)
(6.73166e-11 3.24895e-12 0)
(6.69041e-11 7.07134e-12 0)
(6.61657e-11 1.08226e-11 0)
(6.50993e-11 1.44786e-11 0)
(6.37142e-11 1.80172e-11 0)
(6.20236e-11 2.14135e-11 0)
(6.00384e-11 2.46456e-11 0)
(5.77759e-11 2.7693e-11 0)
(5.5258e-11 3.05294e-11 0)
(5.25027e-11 3.31338e-11 0)
(4.9529e-11 3.54797e-11 0)
(4.63642e-11 3.75438e-11 0)
(4.30367e-11 3.92991e-11 0)
(3.95744e-11 4.07203e-11 0)
(3.60045e-11 4.17792e-11 0)
(3.23588e-11 4.24464e-11 0)
(2.86804e-11 4.26936e-11 0)
(2.50054e-11 4.249e-11 0)
(2.13748e-11 4.17991e-11 0)
(1.78702e-11 4.05814e-11 0)
(1.45127e-11 3.87977e-11 0)
(1.13243e-11 3.63831e-11 0)
(8.4857e-12 3.32734e-11 0)
(5.93807e-12 2.9449e-11 0)
(3.56261e-12 2.474e-11 0)
(1.87548e-12 1.90337e-11 0)
(7.31534e-13 1.23946e-11 0)
(-5.5868e-16 4.64408e-12 0)
(1.66816e-15 -5.18824e-12 0)
(6.34478e-13 -1.39133e-11 0)
(1.63242e-12 -2.15599e-11 0)
(3.1006e-12 -2.80314e-11 0)
(5.03236e-12 -3.33948e-11 0)
(7.31683e-12 -3.77543e-11 0)
(9.84148e-12 -4.12199e-11 0)
(1.26155e-11 -4.38838e-11 0)
(1.55875e-11 -4.58065e-11 0)
(1.86722e-11 -4.70304e-11 0)
(2.18427e-11 -4.76258e-11 0)
(2.50603e-11 -4.76418e-11 0)
(2.82672e-11 -4.71215e-11 0)
(3.14264e-11 -4.61089e-11 0)
(3.45115e-11 -4.46467e-11 0)
(3.74886e-11 -4.27714e-11 0)
(4.0329e-11 -4.05221e-11 0)
(4.30066e-11 -3.79341e-11 0)
(4.54976e-11 -3.50423e-11 0)
(4.77848e-11 -3.1878e-11 0)
(4.98519e-11 -2.84777e-11 0)
(5.16787e-11 -2.48725e-11 0)
(5.32527e-11 -2.10947e-11 0)
(5.45649e-11 -1.7175e-11 0)
(5.56038e-11 -1.31442e-11 0)
(5.63656e-11 -9.03324e-12 0)
(5.68498e-11 -4.87161e-12 0)
(5.70564e-11 -6.89618e-13 0)
(5.69839e-11 3.48152e-12 0)
(5.66327e-11 7.61191e-12 0)
(5.60035e-11 1.16675e-11 0)
(5.51001e-11 1.56204e-11 0)
(5.39267e-11 1.94473e-11 0)
(5.24907e-11 2.31213e-11 0)
(5.08082e-11 2.66176e-11 0)
(4.88914e-11 2.99123e-11 0)
(4.67536e-11 3.298e-11 0)
(4.44135e-11 3.57915e-11 0)
(4.18898e-11 3.83239e-11 0)
(3.92028e-11 4.05509e-11 0)
(3.63771e-11 4.24447e-11 0)
(3.34363e-11 4.39757e-11 0)
(3.04031e-11 4.51143e-11 0)
(2.73072e-11 4.58298e-11 0)
(2.41876e-11 4.60908e-11 0)
(2.10747e-11 4.58622e-11 0)
(1.80038e-11 4.51053e-11 0)
(1.50368e-11 4.37779e-11 0)
(1.22021e-11 4.18244e-11 0)
(9.55399e-12 3.91918e-11 0)
(7.1197e-12 3.58253e-11 0)
(4.93083e-12 3.15997e-11 0)
(3.14447e-12 2.65042e-11 0)
(1.56468e-12 2.0452e-11 0)
(5.082e-13 1.31608e-11 0)
(3.41928e-15 4.93711e-12 0)
(-4.71291e-14 -5.46863e-12 0)
(5.22997e-13 -1.46509e-11 0)
(1.31093e-12 -2.27337e-11 0)
(2.52231e-12 -2.95668e-11 0)
(4.10479e-12 -3.52719e-11 0)
(5.95277e-12 -3.99353e-11 0)
(7.98461e-12 -4.36685e-11 0)
(1.02404e-11 -4.65312e-11 0)
(1.2672e-11 -4.85845e-11 0)
(1.51927e-11 -4.99054e-11 0)
(1.77812e-11 -5.0556e-11 0)
(2.041e-11 -5.05803e-11 0)
(2.30338e-11 -5.0037e-11 0)
(2.56201e-11 -4.8969e-11 0)
(2.81468e-11 -4.7421e-11 0)
(3.05855e-11 -4.54339e-11 0)
(3.29118e-11 -4.30479e-11 0)
(3.51051e-11 -4.03025e-11 0)
(3.71491e-11 -3.72331e-11 0)
(3.90252e-11 -3.3875e-11 0)
(4.07175e-11 -3.02637e-11 0)
(4.22163e-11 -2.6437e-11 0)
(4.35086e-11 -2.24242e-11 0)
(4.45827e-11 -1.82626e-11 0)
(4.54333e-11 -1.39827e-11 0)
(4.60578e-11 -9.616e-12 0)
(4.64557e-11 -5.19364e-12 0)
(4.6627e-11 -7.49411e-13 0)
(4.65713e-11 3.6824e-12 0)
(4.62859e-11 8.06942e-12 0)
(4.57696e-11 1.23792e-11 0)
(4.50269e-11 1.65838e-11 0)
(4.40639e-11 2.06527e-11 0)
(4.2888e-11 2.45606e-11 0)
(4.15082e-11 2.82801e-11 0)
(3.99361e-11 3.17824e-11 0)
(3.81831e-11 3.50409e-11 0)
(3.62642e-11 3.80297e-11 0)
(3.41956e-11 4.07204e-11 0)
(3.19935e-11 4.30858e-11 0)
(2.96771e-11 4.50958e-11 0)
(2.72666e-11 4.67195e-11 0)
(2.47816e-11 4.79263e-11 0)
(2.22467e-11 4.86836e-11 0)
(1.96944e-11 4.89559e-11 0)
(1.71492e-11 4.87062e-11 0)
(1.46413e-11 4.78908e-11 0)
(1.22313e-11 4.64639e-11 0)
(9.9264e-12 4.43744e-11 0)
(7.74734e-12 4.15507e-11 0)
(5.80162e-12 3.79268e-11 0)
(4.07383e-12 3.34725e-11 0)
(2.48353e-12 2.80228e-11 0)
(1.27487e-12 2.14842e-11 0)
(4.84735e-13 1.39222e-11 0)
(4.52657e-16 5.17059e-12 0)
(-4.1896e-14 -5.65171e-12 0)
(4.21288e-13 -1.52141e-11 0)
(1.02439e-12 -2.36225e-11 0)
(1.9413e-12 -3.07727e-11 0)
(3.16105e-12 -3.67643e-11 0)
(4.5895e-12 -4.16745e-11 0)
(6.14726e-12 -4.55981e-11 0)
(7.90062e-12 -4.86062e-11 0)
(9.78757e-12 -5.07713e-11 0)
(1.17287e-11 -5.21713e-11 0)
(1.37356e-11 -5.28671e-11 0)
(1.57763e-11 -5.29069e-11 0)
(1.78093e-11 -5.23444e-11 0)
(1.98153e-11 -5.1234e-11 0)
(2.17766e-11 -4.96188e-11 0)
(2.36708e-11 -4.7545e-11 0)
(2.54772e-11 -4.50508e-11 0)
(2.71808e-11 -4.21799e-11 0)
(2.8768e-11 -3.89679e-11 0)
(3.02268e-11 -3.54578e-11 0)
(3.15431e-11 -3.16807e-11 0)
(3.27069e-11 -2.76773e-11 0)
(3.37099e-11 -2.34812e-11 0)
(3.45446e-11 -1.91275e-11 0)
(3.52078e-11 -1.46471e-11 0)
(3.56964e-11 -1.00759e-11 0)
(3.60091e-11 -5.44519e-12 0)
(3.61427e-11 -7.93348e-13 0)
(3.60964e-11 3.8452e-12 0)
(3.58709e-11 8.43407e-12 0)
(3.54684e-11 1.29433e-11 0)
(3.48911e-11 1.73411e-11 0)
(3.41417e-11 2.16002e-11 0)
(3.32266e-11 2.56906e-11 0)
(3.21531e-11 2.95839e-11 0)
(3.09295e-11 3.32522e-11 0)
(2.95665e-11 3.66646e-11 0)
(2.80756e-11 3.97952e-11 0)
(2.6468e-11 4.26142e-11 0)
(2.47564e-11 4.50912e-11 0)
(2.2956e-11 4.71954e-11 0)
(2.10836e-11 4.88955e-11 0)
(1.9154e-11 5.01586e-11 0)
(1.71859e-11 5.09487e-11 0)
(1.52075e-11 5.12287e-11 0)
(1.32367e-11 5.09602e-11 0)
(1.12966e-11 5.00988e-11 0)
(9.43706e-12 4.85904e-11 0)
(7.65634e-12 4.63784e-11 0)
(5.99015e-12 4.34133e-11 0)
(4.50477e-12 3.96154e-11 0)
(3.13003e-12 3.4886e-11 0)
(1.9569e-12 2.91931e-11 0)
(1.01583e-12 2.24577e-11 0)
(3.38153e-13 1.44093e-11 0)
(9.84394e-15 5.37978e-12 0)
(-4.17981e-14 -5.79907e-12 0)
(3.16941e-13 -1.56413e-11 0)
(7.26398e-13 -2.43062e-11 0)
(1.36333e-12 -3.16954e-11 0)
(2.23536e-12 -3.78832e-11 0)
(3.25064e-12 -4.29641e-11 0)
(4.34202e-12 -4.70237e-11 0)
(5.58035e-12 -5.01419e-11 0)
(6.9187e-12 -5.23989e-11 0)
(8.29056e-12 -5.38588e-11 0)
(9.71216e-12 -5.45873e-11 0)
(1.11501e-11 -5.46395e-11 0)
(1.25968e-11 -5.40637e-11 0)
(1.40181e-11 -5.29229e-11 0)
(1.54083e-11 -5.12594e-11 0)
(1.67524e-11 -4.91185e-11 0)
(1.80348e-11 -4.65449e-11 0)
(1.92442e-11 -4.35797e-11 0)
(2.03707e-11 -4.02641e-11 0)
(2.14056e-11 -3.66354e-11 0)
(2.234e-11 -3.27367e-11 0)
(2.31659e-11 -2.86006e-11 0)
(2.38793e-11 -2.42671e-11 0)
(2.44743e-11 -1.97682e-11 0)
(2.49469e-11 -1.51398e-11 0)
(2.52956e-11 -1.04143e-11 0)
(2.55184e-11 -5.63001e-12 0)
(2.56122e-11 -8.2373e-13 0)
(2.55776e-11 3.96528e-12 0)
(2.54148e-11 8.70355e-12 0)
(2.51244e-11 1.33611e-11 0)
(2.47105e-11 1.7906e-11 0)
(2.41768e-11 2.23077e-11 0)
(2.35252e-11 2.65362e-11 0)
(2.27621e-11 3.05602e-11 0)
(2.18915e-11 3.4351e-11 0)
(2.09213e-11 3.78798e-11 0)
(1.98621e-11 4.11158e-11 0)
(1.87193e-11 4.40286e-11 0)
(1.75024e-11 4.65873e-11 0)
(1.62238e-11 4.87607e-11 0)
(1.48955e-11 5.05164e-11 0)
(1.35265e-11 5.18197e-11 0)
(1.21303e-11 5.26326e-11 0)
(1.07286e-11 5.29161e-11 0)
(9.33529e-12 5.26324e-11 0)
(7.96445e-12 5.17305e-11 0)
(6.65669e-12 5.01599e-11 0)
(5.4183e-12 4.78658e-11 0)
(4.24278e-12 4.47771e-11 0)
(3.18443e-12 4.08316e-11 0)
(2.27149e-12 3.5976e-11 0)
(1.43884e-12 3.00705e-11 0)
(6.87016e-13 2.30269e-11 0)
(2.393e-13 1.48704e-11 0)
(-2.43501e-14 5.49843e-12 0)
(-4.19083e-14 -5.89968e-12 0)
(2.05198e-13 -1.59231e-11 0)
(4.39894e-13 -2.47627e-11 0)
(7.98341e-13 -3.22956e-11 0)
(1.32637e-12 -3.86135e-11 0)
(1.92955e-12 -4.38055e-11 0)
(2.55287e-12 -4.7961e-11 0)
(3.27725e-12 -5.11579e-11 0)
(4.06575e-12 -5.34726e-11 0)
(4.86503e-12 -5.49715e-11 0)
(5.72534e-12 -5.57138e-11 0)
(6.52453e-12 -5.57685e-11 0)
(7.39838e-12 -5.51987e-11 0)
(8.22945e-12 -5.40395e-11 0)
(9.04821e-12 -5.23443e-11 0)
(9.83952e-12 -5.01598e-11 0)
(1.05935e-11 -4.75339e-11 0)
(1.13046e-11 -4.4507e-11 0)
(1.19689e-11 -4.11225e-11 0)
(1.25779e-11 -3.74182e-11 0)
(1.31269e-11 -3.34369e-11 0)
(1.36134e-11 -2.92143e-11 0)
(1.40329e-11 -2.47894e-11 0)
(1.43852e-11 -2.01949e-11 0)
(1.46686e-11 -1.54668e-11 0)
(1.48792e-11 -1.06381e-11 0)
(1.50119e-11 -5.75128e-12 0)
(1.50627e-11 -8.43303e-13 0)
(1.50331e-11 4.04672e-12 0)
(1.49313e-11 8.88533e-12 0)
(1.47585e-11 1.36411e-11 0)
(1.45131e-11 1.82844e-11 0)
(1.4196e-11 2.27817e-11 0)
(1.38084e-11 2.71014e-11 0)
(1.33539e-11 3.12139e-11 0)
(1.28385e-11 3.50854e-11 0)
(1.2265e-11 3.86909e-11 0)
(1.16376e-11 4.19954e-11 0)
(1.09618e-11 4.49691e-11 0)
(1.02433e-11 4.75813e-11 0)
(9.48971e-12 4.97996e-11 0)
(8.70889e-12 5.15902e-11 0)
(7.90469e-12 5.29191e-11 0)
(7.08595e-12 5.37451e-11 0)
(6.26208e-12 5.40241e-11 0)
(5.44051e-12 5.37347e-11 0)
(4.64389e-12 5.28075e-11 0)
(3.89808e-12 5.11929e-11 0)
(3.17521e-12 4.88329e-11 0)
(2.49938e-12 4.56757e-11 0)
(1.95018e-12 4.1649e-11 0)
(1.37489e-12 3.66322e-11 0)
(8.2467e-13 3.06195e-11 0)
(4.88841e-13 2.35114e-11 0)
(1.58984e-13 1.50728e-11 0)
(1.63209e-14 5.59379e-12 0)
(-4.07993e-14 -5.9449e-12 0)
(9.51201e-14 -1.6059e-11 0)
(1.52939e-13 -2.49752e-11 0)
(2.46168e-13 -3.25756e-11 0)
(4.26837e-13 -3.89564e-11 0)
(6.17146e-13 -4.42038e-11 0)
(7.71491e-13 -4.84055e-11 0)
(9.83276e-13 -5.16414e-11 0)
(1.22415e-12 -5.39852e-11 0)
(1.44404e-12 -5.55082e-11 0)
(1.70934e-12 -5.6269e-11 0)
(1.94863e-12 -5.63283e-11 0)
(2.22374e-12 -5.57466e-11 0)
(2.45585e-12 -5.45731e-11 0)
(2.69871e-12 -5.2863e-11 0)
(2.93545e-12 -5.06611e-11 0)
(3.16078e-12 -4.80107e-11 0)
(3.37341e-12 -4.49544e-11 0)
(3.57208e-12 -4.15346e-11 0)
(3.75396e-12 -3.77942e-11 0)
(3.91715e-12 -3.37704e-11 0)
(4.06156e-12 -2.95045e-11 0)
(4.18959e-12 -2.50309e-11 0)
(4.30153e-12 -2.03871e-11 0)
(4.3952e-12 -1.56097e-11 0)
(4.46381e-12 -1.07376e-11 0)
(4.50198e-12 -5.80804e-12 0)
(4.51018e-12 -8.58629e-13 0)
(4.49147e-12 4.07766e-12 0)
(4.45171e-12 8.96805e-12 0)
(4.39329e-12 1.37756e-11 0)
(4.31456e-12 1.84673e-11 0)
(4.21363e-12 2.30112e-11 0)
(4.09216e-12 2.73756e-11 0)
(3.9492e-12 3.15297e-11 0)
(3.78838e-12 3.54438e-11 0)
(3.61105e-12 3.90838e-11 0)
(3.4168e-12 4.24214e-11 0)
(3.20968e-12 4.54245e-11 0)
(2.99039e-12 4.80617e-11 0)
(2.76217e-12 5.03003e-11 0)
(2.52979e-12 5.21067e-11 0)
(2.29172e-12 5.34453e-11 0)
(2.05935e-12 5.42837e-11 0)
(1.804e-12 5.45815e-11 0)
(1.55313e-12 5.42657e-11 0)
(1.33723e-12 5.3317e-11 0)
(1.13692e-12 5.16797e-11 0)
(9.64129e-13 4.9293e-11 0)
(7.95614e-13 4.6093e-11 0)
(6.12051e-13 4.2009e-11 0)
(5.02184e-13 3.69776e-11 0)
(4.17368e-13 3.08899e-11 0)
(1.2863e-13 2.3645e-11 0)
(-5.57025e-15 1.5237e-11 0)
(-2.23554e-14 5.61548e-12 0)
(-4.0955e-14 -5.9454e-12 0)
(-8.47725e-16 -1.60405e-11 0)
(-1.14765e-13 -2.49542e-11 0)
(-3.01902e-13 -3.25467e-11 0)
(-4.68374e-13 -3.89188e-11 0)
(-6.88772e-13 -4.41616e-11 0)
(-1.00119e-12 -4.83583e-11 0)
(-1.30061e-12 -5.15916e-11 0)
(-1.60361e-12 -5.39344e-11 0)
(-1.93051e-12 -5.54565e-11 0)
(-2.30539e-12 -5.62152e-11 0)
(-2.62699e-12 -5.62776e-11 0)
(-2.99293e-12 -5.56972e-11 0)
(-3.31612e-12 -5.45274e-11 0)
(-3.64217e-12 -5.28199e-11 0)
(-3.95636e-12 -5.06209e-11 0)
(-4.25651e-12 -4.79728e-11 0)
(-4.53998e-12 -4.49188e-11 0)
(-4.80488e-12 -4.15009e-11 0)
(-5.04889e-12 -3.77611e-11 0)
(-5.27027e-12 -3.37368e-11 0)
(-5.46467e-12 -2.94668e-11 0)
(-5.62889e-12 -2.49901e-11 0)
(-5.76269e-12 -2.0348e-11 0)
(-5.86706e-12 -1.55763e-11 0)
(-5.94517e-12 -1.07173e-11 0)
(-6.00007e-12 -5.80135e-12 0)
(-6.03171e-12 -8.62577e-13 0)
(-6.03472e-12 4.06768e-12 0)
(-6.00671e-12 8.95299e-12 0)
(-5.94902e-12 1.37604e-11 0)
(-5.86174e-12 1.84517e-11 0)
(-5.74614e-12 2.29957e-11 0)
(-5.60427e-12 2.73593e-11 0)
(-5.43534e-12 3.15111e-11 0)
(-5.24204e-12 3.5422e-11 0)
(-5.02538e-12 3.90593e-11 0)
(-4.78531e-12 4.23936e-11 0)
(-4.52522e-12 4.53937e-11 0)
(-4.24642e-12 4.80269e-11 0)
(-3.95019e-12 5.0263e-11 0)
(-3.63867e-12 5.20665e-11 0)
(-3.3169e-12 5.34021e-11 0)
(-2.99968e-12 5.42367e-11 0)
(-2.64311e-12 5.45321e-11 0)
(-2.27981e-12 5.42129e-11 0)
(-1.9504e-12 5.32614e-11 0)
(-1.59249e-12 5.16216e-11 0)
(-1.25976e-12 4.92316e-11 0)
(-9.47268e-13 4.60374e-11 0)
(-5.82227e-13 4.19601e-11 0)
(-3.62639e-13 3.68993e-11 0)
(-2.8366e-13 3.08331e-11 0)
(-3.64869e-14 2.36559e-11 0)
(-1.85298e-14 1.51762e-11 0)
(1.8686e-14 5.60961e-12 0)
(-5.93214e-14 -5.88646e-12 0)
(-8.81621e-14 -1.58903e-11 0)
(-3.97876e-13 -2.47008e-11 0)
(-8.44446e-13 -3.22027e-11 0)
(-1.35929e-12 -3.85013e-11 0)
(-1.99284e-12 -4.36784e-11 0)
(-2.77263e-12 -4.78208e-11 0)
(-3.58504e-12 -5.10123e-11 0)
(-4.43564e-12 -5.33229e-11 0)
(-5.34485e-12 -5.48179e-11 0)
(-6.30573e-12 -5.55588e-11 0)
(-7.19278e-12 -5.56201e-11 0)
(-8.14556e-12 -5.50556e-11 0)
(-9.06316e-12 -5.39031e-11 0)
(-9.96015e-12 -5.22153e-11 0)
(-1.0825e-11 -5.00392e-11 0)
(-1.16499e-11 -4.74202e-11 0)
(-1.24286e-11 -4.44008e-11 0)
(-1.31547e-11 -4.10228e-11 0)
(-1.38208e-11 -3.7324e-11 0)
(-1.44211e-11 -3.33457e-11 0)
(-1.4953e-11 -2.91237e-11 0)
(-1.54126e-11 -2.46991e-11 0)
(-1.57942e-11 -2.01084e-11 0)
(-1.60985e-11 -1.53937e-11 0)
(-1.63253e-11 -1.05886e-11 0)
(-1.64714e-11 -5.73006e-12 0)
(-1.65376e-11 -8.45757e-13 0)
(-1.65239e-11 4.02993e-12 0)
(-1.64278e-11 8.8631e-12 0)
(-1.62513e-11 1.36156e-11 0)
(-1.59975e-11 1.82552e-11 0)
(-1.56667e-11 2.27454e-11 0)
(-1.52621e-11 2.70597e-11 0)
(-1.47852e-11 3.1164e-11 0)
(-1.42391e-11 3.50287e-11 0)
(-1.36282e-11 3.86232e-11 0)
(-1.2957e-11 4.19179e-11 0)
(-1.22313e-11 4.48804e-11 0)
(-1.14554e-11 4.74834e-11 0)
(-1.06354e-11 4.96909e-11 0)
(-9.77911e-12 5.14728e-11 0)
(-8.89554e-12 5.27915e-11 0)
(-7.99502e-12 5.3608e-11 0)
(-7.0732e-12 5.38774e-11 0)
(-6.14435e-12 5.35799e-11 0)
(-5.2383e-12 5.26435e-11 0)
(-4.34062e-12 5.10238e-11 0)
(-3.45529e-12 4.86653e-11 0)
(-2.63166e-12 4.55009e-11 0)
(-1.94272e-12 4.14666e-11 0)
(-1.25017e-12 3.65023e-11 0)
(-6.15984e-13 3.04798e-11 0)
(-4.29026e-13 2.33474e-11 0)
(-2.37761e-13 1.50372e-11 0)
(-1.10962e-14 5.55416e-12 0)
(-3.68507e-14 -5.78139e-12 0)
(-1.92372e-13 -1.55854e-11 0)
(-6.55062e-13 -2.42117e-11 0)
(-1.39211e-12 -3.15468e-11 0)
(-2.25779e-12 -3.76993e-11 0)
(-3.29858e-12 -4.27514e-11 0)
(-4.54584e-12 -4.67914e-11 0)
(-5.86939e-12 -4.9902e-11 0)
(-7.26186e-12 -5.21513e-11 0)
(-8.73994e-12 -5.36075e-11 0)
(-1.0256e-11 -5.43392e-11 0)
(-1.17671e-11 -5.43969e-11 0)
(-1.32908e-11 -5.38305e-11 0)
(-1.47929e-11 -5.26999e-11 0)
(-1.6257e-11 -5.10474e-11 0)
(-1.76678e-11 -4.8919e-11 0)
(-1.90145e-11 -4.63568e-11 0)
(-2.02854e-11 -4.34049e-11 0)
(-2.1468e-11 -4.01005e-11 0)
(-2.25541e-11 -3.64851e-11 0)
(-2.35352e-11 -3.25948e-11 0)
(-2.44024e-11 -2.84706e-11 0)
(-2.51497e-11 -2.41454e-11 0)
(-2.57752e-11 -1.96603e-11 0)
(-2.62745e-11 -1.50496e-11 0)
(-2.66446e-11 -1.03489e-11 0)
(-2.68817e-11 -5.58933e-12 0)
(-2.69834e-11 -8.08907e-13 0)
(-2.69514e-11 3.96244e-12 0)
(-2.6789e-11 8.68701e-12 0)
(-2.64982e-11 1.33342e-11 0)
(-2.60807e-11 1.78678e-11 0)
(-2.5536e-11 2.22598e-11 0)
(-2.48678e-11 2.64752e-11 0)
(-2.40836e-11 3.04881e-11 0)
(-2.31875e-11 3.42634e-11 0)
(-2.2186e-11 3.77766e-11 0)
(-2.1087e-11 4.09935e-11 0)
(-1.98973e-11 4.38889e-11 0)
(-1.86281e-11 4.64292e-11 0)
(-1.72893e-11 4.85854e-11 0)
(-1.58906e-11 5.03225e-11 0)
(-1.4449e-11 5.16097e-11 0)
(-1.29783e-11 5.24057e-11 0)
(-1.14858e-11 5.26742e-11 0)
(-9.99304e-12 5.23763e-11 0)
(-8.52011e-12 5.14647e-11 0)
(-7.05977e-12 4.98849e-11 0)
(-5.6803e-12 4.75809e-11 0)
(-4.38807e-12 4.44986e-11 0)
(-3.10866e-12 4.0564e-11 0)
(-2.10979e-12 3.56852e-11 0)
(-1.38366e-12 2.98284e-11 0)
(-5.63676e-13 2.28942e-11 0)
(-2.15095e-13 1.46971e-11 0)
(3.07718e-14 5.45949e-12 0)
(-5.73587e-14 -5.62802e-12 0)
(-2.88641e-13 -1.51269e-11 0)
(-9.45047e-13 -2.34826e-11 0)
(-1.94251e-12 -3.05686e-11 0)
(-3.1579e-12 -3.65019e-11 0)
(-4.6131e-12 -4.13747e-11 0)
(-6.32789e-12 -4.52652e-11 0)
(-8.1602e-12 -4.82572e-11 0)
(-1.00927e-11 -5.04196e-11 0)
(-1.21338e-11 -5.18177e-11 0)
(-1.42228e-11 -5.2515e-11 0)
(-1.63243e-11 -5.25639e-11 0)
(-1.84287e-11 -5.20143e-11 0)
(-2.05059e-11 -5.09179e-11 0)
(-2.25304e-11 -4.93181e-11 0)
(-2.44819e-11 -4.72587e-11 0)
(-2.63445e-11 -4.47823e-11 0)
(-2.81009e-11 -4.1928e-11 0)
(-2.97365e-11 -3.87349e-11 0)
(-3.12373e-11 -3.52415e-11 0)
(-3.25926e-11 -3.14828e-11 0)
(-3.37919e-11 -2.74962e-11 0)
(-3.48283e-11 -2.3317e-11 0)
(-3.56943e-11 -1.89834e-11 0)
(-3.63831e-11 -1.45263e-11 0)
(-3.689e-11 -9.98301e-12 0)
(-3.72132e-11 -5.38249e-12 0)
(-3.73524e-11 -7.61579e-13 0)
(-3.73083e-11 3.84975e-12 0)
(-3.70809e-11 8.41473e-12 0)
(-3.66731e-11 1.29059e-11 0)
(-3.60886e-11 1.72866e-11 0)
(-3.53306e-11 2.15319e-11 0)
(-3.44044e-11 2.56034e-11 0)
(-3.33163e-11 2.94789e-11 0)
(-3.20735e-11 3.3124e-11 0)
(-3.06848e-11 3.65158e-11 0)
(-2.91612e-11 3.96198e-11 0)
(-2.7514e-11 4.24141e-11 0)
(-2.57572e-11 4.48626e-11 0)
(-2.39042e-11 4.69431e-11 0)
(-2.19705e-11 4.86168e-11 0)
(-1.99765e-11 4.98573e-11 0)
(-1.79438e-11 5.0623e-11 0)
(-1.58847e-11 5.08843e-11 0)
(-1.38226e-11 5.05976e-11 0)
(-1.17915e-11 4.9722e-11 0)
(-9.80567e-12 4.82004e-11 0)
(-7.87426e-12 4.59891e-11 0)
(-6.06925e-12 4.30123e-11 0)
(-4.50615e-12 3.92168e-11 0)
(-3.01148e-12 3.45415e-11 0)
(-1.65966e-12 2.88627e-11 0)
(-9.95928e-13 2.21156e-11 0)
(-4.59854e-13 1.4273e-11 0)
(-3.36766e-14 5.29128e-12 0)
(-3.51687e-14 -5.41053e-12 0)
(-4.05782e-13 -1.45254e-11 0)
(-1.21725e-12 -2.25065e-11 0)
(-2.49935e-12 -2.92681e-11 0)
(-4.07535e-12 -3.49215e-11 0)
(-5.94508e-12 -3.95563e-11 0)
(-8.12394e-12 -4.32502e-11 0)
(-1.04649e-11 -4.60875e-11 0)
(-1.29343e-11 -4.81373e-11 0)
(-1.55344e-11 -4.94585e-11 0)
(-1.81957e-11 -5.01141e-11 0)
(-2.08763e-11 -5.01509e-11 0)