/*--------------------------------*- C++ -*----------------------------------*\
| =========                 |                                                 |
| \\      /  F ield         | OpenFOAM: The Open Source CFD Toolbox           |
|  \\    /   O peration     | Version:  5.0                                   |
|   \\  /    A nd           | Web:      www.OpenFOAM.org                      |
|    \\/     M anipulation  |                                                 |
\*---------------------------------------------------------------------------*/
FoamFile
{
    version     2.0;
    format      ascii;
    class       surfaceScalarField;
    location    "169";
    object      phi;
}
// * * * * * * * * * * * * * * * * * * * * * * * * * * * * * * * * * * * * * //

dimensions      [0 3 -1 0 0 0 0];

internalField   nonuniform List<scalar> 
3052
(
2.07429e-21
-7.80895e-21
6.26342e-21
-6.81207e-21
5.43089e-20
-5.0218e-20
9.46933e-20
-4.3252e-20
1.32327e-19
-3.95306e-20
1.85406e-19
-5.48917e-20
2.41322e-19
-5.73241e-20
2.97416e-19
-5.74317e-20
3.5636e-19
-6.05494e-20
4.17188e-19
-6.2366e-20
4.77927e-19
-6.21754e-20
5.38146e-19
-6.15925e-20
5.97395e-19
-6.05688e-20
6.54923e-19
-5.87778e-20
7.10052e-19
-5.64553e-20
7.62399e-19
-5.36408e-20
8.11302e-19
-5.02066e-20
8.56594e-19
-4.65108e-20
8.97682e-19
-4.23197e-20
9.34498e-19
-3.79203e-20
9.66511e-19
-3.30771e-20
9.9387e-19
-2.82195e-20
1.01582e-18
-2.27178e-20
1.03302e-18
-1.77118e-20
1.04502e-18
-1.24573e-20
1.05207e-18
-7.33046e-21
1.05342e-18
-1.6072e-21
1.04971e-18
3.64052e-21
1.04011e-18
9.50486e-21
1.026e-18
1.41808e-20
1.00707e-18
1.91592e-20
9.84111e-19
2.36451e-20
9.56515e-19
2.85657e-20
9.25327e-19
3.24747e-20
8.90031e-19
3.66585e-20
8.51715e-19
3.98563e-20
8.09714e-19
4.34819e-20
7.65253e-19
4.60433e-20
7.1797e-19
4.88143e-20
6.68659e-19
5.07995e-20
6.17275e-19
5.26178e-20
5.64919e-19
5.35467e-20
5.11398e-19
5.4578e-20
4.57674e-19
5.48252e-20
4.0393e-19
5.48391e-20
3.5105e-19
5.40563e-20
2.99285e-19
5.29864e-20
2.49372e-19
5.11473e-20
2.01745e-19
4.8832e-20
1.57404e-19
4.56219e-20
1.16194e-19
4.20818e-20
8.00281e-20
3.71548e-20
5.04808e-20
3.12757e-20
2.24467e-20
2.80314e-20
7.07121e-21
1.57718e-20
7.0863e-21
1.98529e-20
-2.98833e-20
3.9129e-20
-2.92592e-20
4.51909e-20
-6.68589e-20
7.5857e-20
-7.87975e-20
1.25229e-19
-9.47309e-20
1.70008e-19
-1.03674e-19
2.18639e-19
-1.09303e-19
2.7251e-19
-1.15201e-19
3.27513e-19
-1.19306e-19
3.82857e-19
-1.21493e-19
4.39078e-19
-1.21942e-19
4.95228e-19
-1.21026e-19
5.50269e-19
-1.18746e-19
6.03505e-19
-1.15394e-19
6.54706e-19
-1.10874e-19
7.03151e-19
-1.05373e-19
7.4871e-19
-9.88304e-20
7.9069e-19
-9.15763e-20
8.29055e-19
-8.33886e-20
8.63181e-19
-7.46883e-20
8.93192e-19
-6.52311e-20
9.18479e-19
-5.5502e-20
9.39612e-19
-4.51859e-20
9.55918e-19
-3.52715e-20
9.67658e-19
-2.49314e-20
9.74104e-19
-1.44916e-20
9.75749e-19
-3.48981e-21
9.72001e-19
7.07779e-21
9.63842e-19
1.78092e-20
9.50655e-19
2.7801e-20
9.33463e-19
3.77632e-20
9.12117e-19
4.70117e-20
8.87351e-19
5.62762e-20
8.58501e-19
6.4567e-20
8.26316e-19
7.25797e-20
7.90398e-19
7.93796e-20
7.51918e-19
8.59064e-20
7.10423e-19
9.12951e-20
6.66796e-19
9.61653e-20
6.20902e-19
9.98998e-20
5.73476e-19
1.03167e-19
5.24294e-19
1.05331e-19
4.74572e-19
1.06994e-19
4.24398e-19
1.07603e-19
3.74514e-19
1.07541e-19
3.25118e-19
1.06346e-19
2.76938e-19
1.04156e-19
2.30429e-19
1.0067e-19
1.86346e-19
9.61345e-20
1.44545e-19
8.97752e-20
1.06853e-19
8.30737e-20
7.31085e-20
7.41796e-20
4.29101e-20
6.16179e-20
2.4059e-20
5.00065e-20
6.95686e-21
3.2168e-20
1.40046e-20
-5.27504e-21
-2.47049e-20
1.80638e-20
-6.02491e-20
4.17629e-20
-9.3099e-20
7.42479e-20
-1.15384e-19
1.09822e-19
-1.31974e-19
1.51913e-19
-1.46738e-19
1.97853e-19
-1.56226e-19
2.46637e-19
-1.64737e-19
2.97148e-19
-1.70719e-19
3.48712e-19
-1.73651e-19
4.00609e-19
-1.74278e-19
4.52047e-19
-1.73023e-19
5.0262e-19
-1.7009e-19
5.51861e-19
-1.65242e-19
5.99055e-19
-1.58768e-19
6.43882e-19
-1.50758e-19
6.85959e-19
-1.41446e-19
7.2489e-19
-1.30794e-19
7.60338e-19
-1.19164e-19
7.92116e-19
-1.06569e-19
8.19958e-19
-9.32651e-20
8.4375e-19
-7.92377e-20
8.63342e-19
-6.48988e-20
8.78479e-19
-5.03106e-20
8.89062e-19
-3.55516e-20
8.95144e-19
-2.03979e-20
8.96785e-19
-5.1292e-21
8.9396e-19
1.01602e-20
8.86784e-19
2.51234e-20
8.7539e-19
3.95837e-20
8.59995e-19
5.35092e-20
8.4066e-19
6.70055e-20
8.17587e-19
7.98383e-20
7.90979e-19
9.17933e-20
7.61186e-19
1.02812e-19
7.28317e-19
1.12942e-19
6.92668e-19
1.22054e-19
6.54476e-19
1.30087e-19
6.14076e-19
1.37013e-19
5.71673e-19
1.42819e-19
5.27692e-19
1.47347e-19
4.82568e-19
1.50831e-19
4.3665e-19
1.53191e-19
3.90267e-19
1.54361e-19
3.44005e-19
1.54123e-19
2.98301e-19
1.52494e-19
2.53658e-19
1.49337e-19
2.10518e-19
1.4443e-19
1.69517e-19
1.37787e-19
1.31441e-19
1.29603e-19
9.61194e-20
1.18214e-19
6.50744e-20
1.04958e-19
3.99775e-20
9.03238e-20
1.755e-20
6.97246e-20
3.9556e-21
4.63313e-20
1.79808e-20
-7.62298e-22
-2.50645e-20
1.84348e-20
-8.07607e-20
3.60102e-20
-1.11458e-19
6.35149e-20
-1.42769e-19
9.84076e-20
-1.66198e-19
1.35652e-19
-1.82781e-19
1.77253e-19
-1.96684e-19
2.21786e-19
-2.08077e-19
2.67873e-19
-2.1512e-19
3.14806e-19
-2.18818e-19
3.62193e-19
-2.20215e-19
4.09352e-19
-2.18931e-19
4.55605e-19
-2.15055e-19
5.0055e-19
-2.08927e-19
5.43791e-19
-2.00699e-19
5.84937e-19
-1.90532e-19
6.2357e-19
-1.78615e-19
6.59379e-19
-1.65174e-19
6.92086e-19
-1.50414e-19
7.21389e-19
-1.3453e-19
7.47104e-19
-1.17689e-19
7.69e-19
-1.00129e-19
7.87009e-19
-8.2036e-20
8.00904e-19
-6.35555e-20
8.10705e-19
-4.47502e-20
8.16395e-19
-2.56588e-20
8.18175e-19
-6.45522e-21
8.1596e-19
1.26021e-20
8.09966e-19
3.1282e-20
7.99964e-19
4.94712e-20
7.8613e-19
6.69458e-20
7.68451e-19
8.36519e-20
7.47401e-19
9.95132e-20
7.22952e-19
1.1452e-19
6.9556e-19
1.28491e-19
6.65256e-19
1.41394e-19
6.32498e-19
1.53023e-19
5.97354e-19
1.63409e-19
5.6025e-19
1.72388e-19
5.21418e-19
1.79972e-19
4.81232e-19
1.86149e-19
4.39889e-19
1.90877e-19
3.97844e-19
1.93991e-19
3.554e-19
1.95495e-19
3.1299e-19
1.95284e-19
2.70994e-19
1.93256e-19
2.29926e-19
1.89177e-19
1.9044e-19
1.83141e-19
1.53114e-19
1.74841e-19
1.17818e-19
1.63434e-19
8.59882e-20
1.50117e-19
5.78615e-20
1.34235e-19
3.27609e-20
1.11609e-19
1.70596e-20
8.78837e-20
5.48522e-21
5.71408e-20
2.3436e-20
8.30085e-21
-3.37463e-20
1.42535e-20
-8.4818e-20
3.38812e-20
-1.29837e-19
5.74925e-20
-1.6481e-19
8.69455e-20
-1.94011e-19
1.20339e-19
-2.15452e-19
1.57586e-19
-2.33202e-19
1.97387e-19
-2.46597e-19
2.38871e-19
-2.55097e-19
2.81433e-19
-2.60096e-19
3.24193e-19
-2.61867e-19
3.66695e-19
-2.60366e-19
4.08571e-19
-2.55835e-19
4.4933e-19
-2.48579e-19
4.88564e-19
-2.38759e-19
5.25931e-19
-2.26691e-19
5.61026e-19
-2.12522e-19
5.93571e-19
-1.96582e-19
6.23297e-19
-1.79054e-19
6.50017e-19
-1.60217e-19
6.73454e-19
-1.40255e-19
6.93468e-19
-1.1942e-19
7.09854e-19
-9.78508e-20
7.22559e-19
-7.58077e-20
7.31503e-19
-5.33414e-20
7.36841e-19
-3.06594e-20
7.38549e-19
-7.92498e-21
7.36773e-19
1.45939e-20
7.31472e-19
3.66973e-20
7.22709e-19
5.81305e-20
7.10365e-19
7.8755e-20
6.94573e-19
9.85388e-20
6.75416e-19
1.17379e-19
6.53326e-19
1.3518e-19
6.28447e-19
1.51809e-19
6.01073e-19
1.67187e-19
5.71303e-19
1.81174e-19
5.39482e-19
1.93676e-19
5.05758e-19
2.04661e-19
4.7051e-19
2.13999e-19
4.34043e-19
2.21603e-19
3.96683e-19
2.27368e-19
3.58561e-19
2.31295e-19
3.20079e-19
2.33203e-19
2.81559e-19
2.33014e-19
2.43462e-19
2.30604e-19
2.06279e-19
2.2587e-19
1.70503e-19
2.18437e-19
1.36535e-19
2.08292e-19
1.05202e-19
1.9564e-19
7.62553e-20
1.78619e-19
5.07834e-20
1.5754e-19
3.07118e-20
1.34821e-19
1.23741e-20
1.03812e-19
1.7623e-21
6.82434e-20
2.52428e-20
3.26508e-21
-3.6098e-20
1.35275e-20
-9.27853e-20
2.96001e-20
-1.43628e-19
5.15017e-20
-1.85122e-19
7.66489e-20
-2.18965e-19
1.06024e-19
-2.44985e-19
1.38775e-19
-2.65842e-19
1.73784e-19
-2.8122e-19
2.10443e-19
-2.91438e-19
2.4819e-19
-2.97603e-19
2.86291e-19
-2.99775e-19
3.24295e-19
-2.98155e-19
3.61758e-19
-2.93039e-19
3.98245e-19
-2.84738e-19
4.33426e-19
-2.73571e-19
4.66879e-19
-2.59799e-19
4.9832e-19
-2.43672e-19
5.27459e-19
-2.25478e-19
5.54111e-19
-2.05473e-19
5.78007e-19
-1.83929e-19
5.99031e-19
-1.61102e-19
6.16973e-19
-1.37219e-19
6.31745e-19
-1.12514e-19
6.43197e-19
-8.7209e-20
6.51375e-19
-6.14615e-20
6.56237e-19
-3.54867e-20
6.57904e-19
-9.50328e-21
6.56371e-19
1.62559e-20
6.51696e-19
4.15111e-20
6.43843e-19
6.60461e-20
6.32864e-19
8.96921e-20
6.18812e-19
1.12337e-19
6.01917e-19
1.33924e-19
5.82309e-19
1.54328e-19
5.60177e-19
1.73428e-19
5.35705e-19
1.91089e-19
5.09138e-19
2.07223e-19
4.80636e-19
2.21688e-19
4.50508e-19
2.34405e-19
4.1899e-19
2.45273e-19
3.8636e-19
2.54162e-19
3.52811e-19
2.60964e-19
3.18674e-19
2.6557e-19
2.84203e-19
2.67829e-19
2.49778e-19
2.67648e-19
2.15779e-19
2.64879e-19
1.82616e-19
2.59269e-19
1.5073e-19
2.50806e-19
1.20758e-19
2.39253e-19
9.27454e-20
2.23532e-19
6.74246e-20
2.04469e-19
4.51788e-20
1.81937e-19
2.52864e-20
1.51928e-19
1.28745e-20
1.17824e-19
4.33587e-21
7.68366e-20
2.95766e-20
1.88714e-21
-3.73104e-20
1.25246e-20
-1.01745e-19
2.65545e-20
-1.56478e-19
4.47685e-20
-2.03058e-19
6.62905e-20
-2.40672e-19
9.16533e-20
-2.70599e-19
1.19997e-19
-2.94264e-19
1.50454e-19
-3.11762e-19
1.82529e-19
-3.23653e-19
2.15525e-19
-3.30763e-19
2.48913e-19
-3.33321e-19
2.82273e-19
-3.31624e-19
3.15202e-19
-3.26019e-19
3.47349e-19
-3.16877e-19
3.78336e-19
-3.0454e-19
4.07822e-19
-2.89276e-19
4.35532e-19
-2.71407e-19
4.6124e-19
-2.51217e-19
4.8472e-19
-2.29025e-19
5.05819e-19
-2.05075e-19
5.24371e-19
-1.79681e-19
5.40243e-19
-1.53104e-19
5.53307e-19
-1.25614e-19
5.63489e-19
-9.74136e-20
5.7075e-19
-6.87711e-20
5.75127e-19
-3.98773e-20
5.76655e-19
-1.10186e-20
5.75399e-19
1.75746e-20
5.71347e-19
4.56478e-20
5.64526e-19
7.29864e-20
5.54925e-19
9.9365e-20
5.42664e-19
1.24676e-19
5.27834e-19
1.4878e-19
5.10596e-19
1.71545e-19
4.911e-19
1.9285e-19
4.69561e-19
2.12581e-19
4.46144e-19
2.30589e-19
4.21049e-19
2.46763e-19
3.94494e-19
2.60975e-19
3.66731e-19
2.73136e-19
3.37971e-19
2.83096e-19
3.08456e-19
2.90737e-19
2.78412e-19
2.95886e-19
2.48106e-19
2.98431e-19
2.17851e-19
2.98216e-19
1.87993e-19
2.95085e-19
1.58917e-19
2.88862e-19
1.31063e-19
2.79243e-19
1.04715e-19
2.65922e-19
8.0412e-20
2.49055e-19
5.8353e-20
2.27314e-19
3.88474e-20
1.99951e-19
2.33526e-20
1.69038e-19
9.57602e-21
1.30333e-19
1.96095e-21
8.44215e-20
3.15352e-20
3.12676e-21
-4.01562e-20
1.04308e-20
-1.08871e-19
2.20753e-20
-1.68022e-19
3.7178e-20
-2.18166e-19
5.57013e-20
-2.59338e-19
7.75274e-20
-2.92496e-19
1.01671e-19
-3.18506e-19
1.27607e-19
-3.37904e-19
1.55048e-19
-3.51275e-19
1.83324e-19
-3.59221e-19
2.11995e-19
-3.62144e-19
2.40655e-19
-3.60408e-19
2.68995e-19
-3.54427e-19
2.96671e-19
-3.44585e-19
3.23353e-19
-3.31235e-19
3.48773e-19
-3.14704e-19
3.72702e-19
-2.95332e-19
3.94903e-19
-2.73443e-19
4.15204e-19
-2.4934e-19
4.3345e-19
-2.23329e-19
4.49499e-19
-1.95739e-19
4.63231e-19
-1.66837e-19
4.74546e-19
-1.3692e-19
4.8337e-19
-1.06259e-19
4.89689e-19
-7.51222e-20
4.93521e-19
-4.37559e-20
4.94898e-19
-1.24143e-20
4.93831e-19
1.86384e-20
4.90371e-19
4.91637e-20
4.84507e-19
7.89168e-20
4.76285e-19
1.07698e-19
4.65738e-19
1.35309e-19
4.52976e-19
1.61607e-19
4.38124e-19
1.86434e-19
4.21345e-19
2.09674e-19
4.02786e-19
2.31169e-19
3.82616e-19
2.50787e-19
3.60996e-19
2.68406e-19
3.38109e-19
2.83897e-19
3.14163e-19
2.97133e-19
2.89372e-19
3.07975e-19
2.63925e-19
3.16267e-19
2.3803e-19
3.2187e-19
2.11918e-19
3.24627e-19
1.85863e-19
3.24374e-19
1.60208e-19
3.20915e-19
1.35309e-19
3.14009e-19
1.11456e-19
3.03467e-19
8.90365e-20
2.89023e-19
6.83843e-20
2.69859e-19
4.97236e-20
2.46035e-19
3.31861e-20
2.17568e-19
1.85595e-20
1.81697e-19
9.04124e-21
1.39736e-19
2.68936e-21
9.05233e-20
3.42093e-20
2.67913e-21
-4.29721e-20
8.27521e-21
-1.14437e-19
1.78032e-20
-1.77478e-19
3.03718e-20
-2.3072e-19
4.59474e-20
-2.7489e-19
6.39481e-20
-3.10577e-19
8.38446e-20
-3.386e-19
1.05369e-19
-3.59578e-19
1.28094e-19
-3.74158e-19
1.51582e-19
-3.82854e-19
1.75485e-19
-3.86162e-19
1.99458e-19
-3.8445e-19
2.23177e-19
-3.78187e-19
2.46331e-19
-3.67778e-19
2.68682e-19
-3.53602e-19
2.9e-19
-3.36021e-19
3.10063e-19
-3.15393e-19
3.28695e-19
-2.92065e-19
3.45736e-19
-2.66377e-19
3.61059e-19
-2.38656e-19
3.74537e-19
-2.09214e-19
3.86074e-19
-1.78378e-19
3.95576e-19
-1.46457e-19
4.03004e-19
-1.13749e-19
4.0832e-19
-8.0522e-20
4.11555e-19
-4.70559e-20
4.1272e-19
-1.36146e-20
4.1185e-19
1.95392e-20
4.08942e-19
5.21275e-20
4.04026e-19
8.392e-20
3.97129e-19
1.14669e-19
3.88303e-19
1.44199e-19
3.77615e-19
1.72327e-19
3.65191e-19
1.98893e-19
3.51148e-19
2.23737e-19
3.35612e-19
2.46723e-19
3.18704e-19
2.67701e-19
3.0059e-19
2.86533e-19
2.81418e-19
3.03086e-19
2.6136e-19
3.17224e-19
2.40575e-19
3.28785e-19
2.19251e-19
3.3763e-19
1.97562e-19
3.43597e-19
1.75715e-19
3.4651e-19
1.53955e-19
3.46189e-19
1.32567e-19
3.42437e-19
1.1186e-19
3.35011e-19
9.21299e-20
3.23604e-19
7.35418e-20
3.07818e-19
5.64627e-20
2.87512e-19
4.11404e-20
2.62017e-19
2.7418e-20
2.30213e-19
1.61678e-20
1.92905e-19
6.8423e-21
1.48445e-19
1.27282e-21
9.56403e-20
3.54679e-20
1.52646e-21
-4.44222e-20
6.35596e-21
-1.19116e-19
1.40401e-20
-1.8498e-19
2.42115e-20
-2.40753e-19
3.64988e-20
-2.87191e-19
5.06024e-20
-3.24823e-19
6.6368e-20
-3.545e-19
8.3496e-20
-3.76843e-19
1.01617e-19
-3.92411e-19
1.20421e-19
-4.01748e-19
1.39564e-19
-4.05371e-19
1.58799e-19
-4.0372e-19
1.77846e-19
-3.97273e-19
1.96475e-19
-3.86427e-19
2.14454e-19
-3.71604e-19
2.31616e-19
-3.5319e-19
2.47773e-19
-3.31555e-19
2.62796e-19
-3.07087e-19
2.76537e-19
-2.80119e-19
2.88892e-19
-2.51015e-19
2.99762e-19
-2.20098e-19
3.09067e-19
-1.87735e-19
3.16731e-19
-1.54199e-19
3.22704e-19
-1.19833e-19
3.26979e-19
-8.49112e-20
3.29576e-19
-4.97404e-20
3.30525e-19
-1.45793e-20
3.29841e-19
2.02733e-20
3.27516e-19
5.45473e-20
3.23557e-19
8.7972e-20
3.17976e-19
1.20316e-19
3.10827e-19
1.51369e-19
3.02208e-19
1.80959e-19
2.92188e-19
2.08912e-19
2.80858e-19
2.35066e-19
2.68312e-19
2.59255e-19
2.54682e-19
2.81328e-19
2.40079e-19
3.01146e-19
2.24636e-19
3.18557e-19
2.08475e-19
3.33408e-19
1.91746e-19
3.45555e-19
1.74593e-19
3.54832e-19
1.57168e-19
3.61076e-19
1.39638e-19
3.64111e-19
1.22209e-19
3.63733e-19
1.05129e-19
3.59703e-19
8.86647e-20
3.51774e-19
7.29692e-20
3.39648e-19
5.82745e-20
3.23059e-19
4.48094e-20
3.0137e-19
3.26784e-20
2.74074e-19
2.19356e-20
2.41412e-19
1.25169e-20
2.01672e-19
5.60797e-21
1.54295e-19
1.65263e-21
9.9682e-20
3.7119e-20
1.13463e-21
-4.55194e-20
4.81019e-21
-1.2253e-19
1.04881e-20
-1.90441e-19
1.79887e-20
-2.48135e-19
2.70098e-20
-2.96262e-19
3.75017e-20
-3.35417e-19
4.92849e-20
-3.66385e-19
6.20933e-20
-3.89744e-19
7.56716e-20
-4.06051e-19
8.97789e-20
-4.15913e-19
1.04202e-19
-4.19816e-19
1.18713e-19
-4.18246e-19
1.33075e-19
-4.11649e-19
1.47142e-19
-4.00506e-19
1.60749e-19
-3.85211e-19
1.73733e-19
-3.66176e-19
1.85969e-19
-3.43789e-19
1.97337e-19
-3.18456e-19
2.0775e-19
-2.90529e-19
2.17116e-19
-2.60379e-19
2.25355e-19
-2.28362e-19
2.32389e-19
-1.94818e-19
2.38182e-19
-1.60099e-19
2.42709e-19
-1.24496e-19
2.45964e-19
-8.83055e-20
2.47948e-19
-5.18002e-20
2.48673e-19
-1.52853e-20
2.48123e-19
2.09093e-20
2.46304e-19
5.64574e-20
2.43252e-19
9.10936e-20
2.38983e-19
1.24617e-19
2.33541e-19
1.56827e-19
2.26972e-19
1.87532e-19
2.19339e-19
2.16541e-19
2.10709e-19
2.43674e-19
2.01178e-19
2.68771e-19
1.90828e-19
2.91673e-19
1.79754e-19
3.1223e-19
1.68043e-19
3.30277e-19
1.55804e-19
3.45668e-19
1.43146e-19
3.5824e-19
1.30184e-19
3.67827e-19
1.17045e-19
3.74265e-19
1.03855e-19
3.77375e-19
9.07677e-20
3.76912e-19
7.7985e-20
3.72645e-19
6.57018e-20
3.64344e-19
5.41047e-20
3.51691e-19
4.32112e-20
3.34178e-19
3.3252e-20
3.11589e-19
2.44893e-20
2.83682e-19
1.63847e-20
2.49028e-19
9.3361e-21
2.07595e-19
4.37901e-21
1.59628e-19
1.02573e-21
1.0231e-19
3.81108e-20
7.71561e-22
-4.61958e-20
3.16332e-21
-1.24785e-19
6.93127e-21
-1.94012e-19
1.18673e-20
-2.52984e-19
1.78281e-20
-3.02225e-19
2.47819e-20
-3.42428e-19
3.26039e-20
-3.7427e-19
4.11397e-20
-3.98321e-19
5.02373e-20
-4.15187e-19
5.97143e-20
-4.25399e-19
6.94064e-20
-4.29517e-19
7.91826e-20
-4.28036e-19
8.88988e-20
-4.21364e-19
9.8421e-20
-4.10024e-19
1.07646e-19
-3.94424e-19
1.16452e-19
-3.74979e-19
1.2476e-19
-3.52105e-19
1.32473e-19
-3.26178e-19
1.39543e-19
-2.976e-19
1.45893e-19
-2.66732e-19
1.51481e-19
-2.33972e-19
1.56247e-19
-1.99649e-19
1.60185e-19
-1.64109e-19
1.63254e-19
-1.27634e-19
1.65466e-19
-9.05333e-20
1.66799e-19
-5.3099e-20
1.67261e-19
-1.56949e-20
1.66835e-19
2.13596e-20
1.65541e-19
5.77579e-20
1.63381e-19
9.32408e-20
1.60402e-19
1.27589e-19
1.56636e-19
1.60592e-19
1.52111e-19
1.92044e-19
1.4687e-19
2.21762e-19
1.40954e-19
2.49571e-19
1.34435e-19
2.75279e-19
1.27363e-19
2.98743e-19
1.19807e-19
3.19784e-19
1.11834e-19
3.38254e-19
1.03515e-19
3.53992e-19
9.49287e-20
3.66833e-19
8.61641e-20
3.76613e-19
7.73112e-20
3.83158e-19
6.84429e-20
3.86282e-19
5.96834e-20
3.85742e-19
5.11843e-20
3.81297e-19
4.31033e-20
3.72691e-19
3.54688e-20
3.59532e-19
2.84089e-20
3.4164e-19
2.20992e-20
3.18515e-19
1.62132e-20
2.89163e-19
1.11581e-20
2.54031e-19
6.62686e-21
2.12453e-19
2.27965e-21
1.61983e-19
1.98128e-22
1.04445e-19
3.83016e-20
3.92677e-22
-4.66067e-20
1.61062e-21
-1.25774e-19
3.51909e-21
-1.95723e-19
5.97459e-21
-2.55308e-19
8.94637e-21
-3.05155e-19
1.24008e-20
-3.45911e-19
1.63122e-20
-3.78218e-19
2.06288e-20
-4.02669e-19
2.52852e-20
-4.19856e-19
3.0191e-20
-4.30319e-19
3.51921e-20
-4.34535e-19
4.02395e-20
-4.33096e-19
4.53372e-20
-4.26474e-19
5.03598e-20
-4.15047e-19
5.52264e-20
-3.993e-19
5.98736e-20
-3.79651e-19
6.42541e-20
-3.56518e-19
6.83302e-20
-3.30284e-19
7.20587e-20
-3.01351e-19
7.54057e-20
-2.70107e-19
7.83264e-20
-2.36922e-19
8.0828e-20
-2.02135e-19
8.28878e-20
-1.66094e-19
8.45274e-20
-1.29121e-19
8.57164e-20
-9.15363e-20
8.64193e-20
-5.36662e-20
8.65853e-20
-1.58473e-20
8.62319e-20
2.16169e-20
8.54011e-20
5.84365e-20
8.41459e-20
9.43646e-20
8.24857e-20
1.29165e-19
8.0408e-20
1.62614e-19
7.7916e-20
1.94496e-19
7.50379e-20
2.24608e-19
7.18176e-20
2.52769e-19
6.82882e-20
2.788e-19
6.44809e-20
3.02548e-19
6.04263e-20
3.23838e-19
5.61697e-20
3.42512e-19
5.1755e-20
3.58408e-19
4.72273e-20
3.71376e-19
4.26367e-20
3.81241e-19
3.80199e-20
3.87814e-19
3.34884e-20
3.90868e-19
2.90555e-20
3.90252e-19
2.47779e-20
3.85699e-19
2.07982e-20
3.76881e-19
1.7196e-20
3.63562e-19
1.39065e-20
3.45159e-19
1.09213e-20
3.21378e-19
8.58495e-21
2.92488e-19
5.86966e-21
2.56647e-19
2.91811e-21
2.13255e-19
1.9885e-21
1.63789e-19
6.79473e-22
1.04666e-19
3.8924e-20
-2.82485e-23
-4.64682e-20
5.10675e-23
-1.25716e-19
2.02271e-22
-1.95658e-19
2.99834e-22
-2.5519e-19
2.85985e-22
-3.05082e-19
2.80541e-22
-3.45913e-19
3.30153e-22
-3.78297e-19
4.84416e-22
-4.02846e-19
7.33119e-22
-4.20118e-19
1.07096e-21
-4.30667e-19
1.49343e-21
-4.34975e-19
1.96779e-21
-4.33587e-19
2.48022e-21
-4.27004e-19
3.01441e-21
-4.15599e-19
3.5442e-21
-3.99862e-19
4.06554e-21
-3.8021e-19
4.5556e-21
-3.57048e-19
5.00969e-21
-3.30776e-19
5.40786e-21
-3.01795e-19
5.75462e-21
-2.70481e-19
6.04269e-21
-2.37187e-19
6.2952e-21
-2.02291e-19
6.53169e-21
-1.66142e-19
6.76473e-21
-1.29077e-19
6.91779e-21
-9.14379e-20
6.94867e-21
-5.35691e-20
6.81504e-21
-1.57707e-20
6.55721e-21
2.16864e-20
6.21555e-21
5.85413e-20
5.85292e-21
9.45495e-20
5.46509e-21
1.29439e-19
5.0448e-21
1.62972e-19
4.57428e-21
1.94918e-19
4.05628e-21
2.25092e-19
3.51325e-21
2.53292e-19
2.94406e-21
2.79368e-19
2.36759e-21
3.03124e-19
1.78947e-21
3.24423e-19
1.21996e-21
3.4308e-19
6.81751e-22
3.58962e-19
1.91029e-22
3.719e-19
-2.45258e-22
3.81723e-19
-6.2777e-22
3.88249e-19
-9.5407e-22
3.91247e-19
-1.18167e-21
3.90538e-19
-1.24656e-21
3.85911e-19
-1.09686e-21
3.76998e-19
-8.17925e-22
3.63426e-19
-4.23353e-22
3.4508e-19
1.81619e-22
3.2162e-19
4.9425e-22
2.9161e-19
8.03502e-22
2.55782e-19
1.01384e-21
2.14165e-19
-7.05653e-22
1.62703e-19
-7.90425e-22
1.04784e-19
3.81276e-20
-3.63176e-22
-4.61206e-20
-1.31586e-21
-1.24466e-19
-2.90842e-21
-1.93701e-19
-5.27315e-21
-2.52648e-19
-8.20626e-21
-3.02056e-19
-1.16184e-20
-3.42495e-19
-1.53635e-20
-3.74572e-19
-1.93028e-20
-3.98915e-19
-2.33651e-20
-4.16053e-19
-2.75131e-20
-4.26521e-19
-3.16301e-20
-4.30856e-19
-3.57048e-20
-4.29519e-19
-3.97255e-20
-4.22986e-19
-4.36212e-20
-4.11724e-19
-4.73603e-20
-3.96142e-19
-5.09141e-20
-3.76677e-19
-5.42556e-20
-3.53727e-19
-5.7373e-20
-3.27694e-19
-6.02356e-20
-2.98952e-19
-6.28394e-20
-2.67889e-19
-6.51359e-20
-2.34871e-19
-6.71056e-20
-2.0026e-19
-6.87011e-20
-1.64388e-19
-6.99678e-20
-1.27644e-19
-7.09031e-20
-9.03565e-20
-7.15737e-20
-5.28682e-20
-7.19684e-20
-1.54415e-20
-7.20864e-20
2.16539e-20
-7.18589e-20
5.81957e-20
-7.13002e-20
9.38905e-20
-7.03979e-20
1.28485e-19
-6.91918e-20
1.6171e-19
-6.76685e-20
1.93366e-19
-6.58631e-20
2.23257e-19
-6.37655e-20
2.512e-19
-6.14118e-20
2.77008e-19
-5.87943e-20
3.00517e-19
-5.59458e-20
3.21566e-19
-5.28593e-20
3.40012e-19
-4.95754e-20
3.55693e-19
-4.60885e-20
3.68448e-19
-4.24438e-20
3.78109e-19
-3.86512e-20
3.84493e-19
-3.48062e-20
3.87418e-19
-3.08577e-20
3.86647e-19
-2.67847e-20
3.81923e-19
-2.26471e-20
3.7302e-19
-1.84716e-20
3.59685e-19
-1.44223e-20
3.41288e-19
-1.06202e-20
3.17464e-19
-6.80322e-21
2.88855e-19
-4.34737e-21
2.5356e-19
-3.09109e-21
2.09905e-19
-1.61894e-22
1.6121e-19
3.25173e-22
1.02988e-19
3.83894e-20
-9.44542e-22
-4.50282e-20
-2.75058e-21
-1.22225e-19
-6.08821e-21
-1.90078e-19
-1.07098e-20
-2.47737e-19
-1.65485e-20
-2.96098e-19
-2.33326e-20
-3.3569e-19
-3.08061e-20
-3.67098e-19
-3.87732e-20
-3.90937e-19
-4.70867e-20
-4.07726e-19
-5.55991e-20
-4.17983e-19
-6.42041e-20
-4.22229e-19
-7.279e-20
-4.2091e-19
-8.12664e-20
-4.14504e-19
-8.95202e-20
-4.03465e-19
-9.7463e-20
-3.88196e-19
-1.05023e-19
-3.69107e-19
-1.12145e-19
-3.46603e-19
-1.1876e-19
-3.21069e-19
-1.24829e-19
-2.92889e-19
-1.30292e-19
-2.6243e-19
-1.35126e-19
-2.30043e-19
-1.39279e-19
-1.9608e-19
-1.42753e-19
-1.60903e-19
-1.45513e-19
-1.2487e-19
-1.47569e-19
-8.83144e-20
-1.48909e-19
-5.1544e-20
-1.49545e-19
-1.48283e-20
-1.49455e-19
2.15679e-20
-1.48663e-19
5.73949e-20
-1.47153e-19
9.2377e-20
-1.44973e-19
1.26278e-19
-1.42125e-19
1.5885e-19
-1.38656e-19
1.89884e-19
-1.34554e-19
2.19165e-19
-1.29879e-19
2.46523e-19
-1.24627e-19
2.71765e-19
-1.18875e-19
2.94766e-19
-1.12632e-19
3.15339e-19
-1.05964e-19
3.33354e-19
-9.88983e-20
3.48646e-19
-9.15083e-20
3.61073e-19
-8.38404e-20
3.70458e-19
-7.59883e-20
3.76641e-19
-6.79918e-20
3.79418e-19
-5.99299e-20
3.78582e-19
-5.18271e-20
3.73913e-19
-4.37167e-20
3.65144e-19
-3.58065e-20
3.51823e-19
-2.82325e-20
3.33966e-19
-2.09635e-20
3.11217e-19
-1.47774e-20
2.81851e-19
-9.12872e-21
2.47e-19
-4.20198e-21
2.06854e-19
-3.47034e-21
1.56964e-19
-1.57106e-21
1.01297e-19
3.68155e-20
-9.33385e-22
-4.39616e-20
-4.07612e-21
-1.18649e-19
-9.07915e-21
-1.84494e-19
-1.61198e-20
-2.404e-19
-2.48274e-20
-2.87243e-19
-3.48955e-20
-3.25565e-19
-4.60406e-20
-3.5593e-19
-5.79854e-20
-3.7897e-19
-7.04803e-20
-3.95188e-19
-8.3324e-20
-4.0509e-19
-9.63353e-20
-4.09169e-19
-1.09339e-19
-4.07868e-19
-1.22174e-19
-4.01639e-19
-1.34696e-19
-3.90911e-19
-1.46759e-19
-3.76097e-19
-1.58254e-19
-3.57575e-19
-1.69072e-19
-3.35748e-19
-1.7913e-19
-3.10978e-19
-1.88346e-19
-2.83654e-19
-1.96649e-19
-2.54109e-19
-2.03973e-19
-2.2272e-19
-2.10265e-19
-1.89799e-19
-2.15515e-19
-1.55713e-19
-2.19691e-19
-1.20757e-19
-2.22787e-19
-8.53e-20
-2.24759e-19
-4.95987e-20
-2.25615e-19
-1.39818e-20
-2.25337e-19
2.13432e-20
-2.23983e-19
5.60779e-20
-2.21572e-19
9.00189e-20
-2.1815e-19
1.22865e-19
-2.13702e-19
1.54438e-19
-2.08288e-19
1.84474e-19
-2.01917e-19
2.12828e-19
-1.94677e-19
2.39281e-19
-1.86593e-19
2.63716e-19
-1.77753e-19
2.85923e-19
-1.6818e-19
3.058e-19
-1.57987e-19
3.23157e-19
-1.47219e-19
3.37905e-19
-1.35999e-19
3.49842e-19
-1.24385e-19
3.58863e-19
-1.12531e-19
3.64751e-19
-1.00491e-19
3.67369e-19
-8.8398e-20
3.6648e-19
-7.63141e-20
3.61877e-19
-6.44147e-20
3.53293e-19
-5.27434e-20
3.40611e-19
-4.16303e-20
3.23074e-19
-3.13401e-20
3.00287e-19
-2.15725e-20
2.73339e-19
-1.38962e-20
2.39807e-19
-8.84898e-21
1.97945e-19
-2.44864e-21
1.52534e-19
-1.25999e-22
9.73492e-20
3.66013e-20
-1.53984e-21
-4.22327e-20
-5.40039e-21
-1.13922e-19
-1.22163e-20
-1.7723e-19
-2.14562e-20
-2.30735e-19
-3.29883e-20
-2.75465e-19
-4.63533e-20
-3.12109e-19
-6.11408e-20
-3.41086e-19
-7.69969e-20
-3.63047e-19
-9.36075e-20
-3.78498e-19
-1.10702e-19
-3.87923e-19
-1.28028e-19
-3.91761e-19
-1.45361e-19
-3.90472e-19
-1.62469e-19
-3.84467e-19
-1.79167e-19
-3.74168e-19
-1.95256e-19
-3.59941e-19
-2.10593e-19
-3.42178e-19
-2.25018e-19
-3.2124e-19
-2.38448e-19
-2.97512e-19
-2.50723e-19
-2.71316e-19
-2.61797e-19
-2.43022e-19
-2.71532e-19
-2.12935e-19
-2.79951e-19
-1.81419e-19
-2.86915e-19
-1.48766e-19
-2.92469e-19
-1.15309e-19
-2.96492e-19
-8.1319e-20
-2.99067e-19
-4.71004e-20
-3.00089e-19
-1.29063e-20
-2.99693e-19
2.09677e-20
-2.97779e-19
5.42698e-20
-2.94499e-19
8.67522e-20
-2.89761e-19
1.18208e-19
-2.8375e-19
1.48408e-19
-2.76376e-19
1.7716e-19
-2.67834e-19
2.0426e-19
-2.58038e-19
2.29551e-19
-2.47214e-19
2.52862e-19
-2.35291e-19
2.7405e-19
-2.2251e-19
2.92977e-19
-2.08826e-19
3.09509e-19
-1.94486e-19
3.23507e-19
-1.79471e-19
3.34839e-19
-1.64053e-19
3.43354e-19
-1.48234e-19
3.48905e-19
-1.32282e-19
3.51313e-19
-1.1623e-19
3.50391e-19
-1.00322e-19
3.45963e-19
-8.45525e-20
3.37762e-19
-6.93839e-20
3.25317e-19
-5.48996e-20
3.08756e-19
-4.12064e-20
2.87862e-19
-2.93506e-20
2.60315e-19
-1.86133e-20
2.27784e-19
-9.48855e-21
1.91421e-19
-6.33178e-21
1.45052e-19
-2.69885e-21
9.36995e-20
3.38875e-20
-1.65643e-21
-4.0259e-20
-6.73173e-21
-1.08277e-19
-1.51195e-20
-1.68004e-19
-2.67686e-20
-2.18572e-19
-4.11899e-20
-2.60776e-19
-5.7793e-20
-2.95318e-19
-7.61693e-20
-3.22586e-19
-9.58683e-20
-3.43218e-19
-1.16537e-19
-3.57725e-19
-1.37781e-19
-3.66535e-19
-1.59354e-19
-3.70098e-19
-1.80891e-19
-3.68827e-19
-2.02203e-19
-3.63113e-19
-2.22936e-19
-3.53325e-19
-2.42985e-19
-3.39826e-19
-2.62023e-19
-3.23004e-19
-2.80031e-19
-3.03194e-19
-2.96669e-19
-2.80746e-19
-3.11995e-19
-2.55969e-19
-3.25675e-19
-2.29216e-19
-3.37843e-19
-2.00777e-19
-3.48184e-19
-1.70992e-19
-3.56891e-19
-1.40115e-19
-3.6367e-19
-1.08488e-19
-3.68734e-19
-7.63325e-20
-3.71782e-19
-4.39822e-20
-3.73081e-19
-1.16422e-20
-3.72365e-19
2.0357e-20
-3.69974e-19
5.18526e-20
-3.65663e-19
8.25342e-20
-3.59788e-19
1.12272e-19
-3.52101e-19
1.40774e-19
-3.4295e-19
1.6794e-19
-3.32109e-19
1.93487e-19
-3.19961e-19
2.17335e-19
-3.06303e-19
2.39245e-19
-2.91528e-19
2.59186e-19
-2.75463e-19
2.76927e-19
-2.58508e-19
2.92435e-19
-2.40535e-19
3.05496e-19
-2.21964e-19
3.16085e-19
-2.02705e-19
3.23984e-19
-1.83155e-19
3.29146e-19
-1.63287e-19
3.31328e-19
-1.43462e-19
3.3044e-19
-1.23693e-19
3.26168e-19
-1.04418e-19
3.18357e-19
-8.56014e-20
3.06919e-19
-6.77295e-20
2.9115e-19
-5.13837e-20
2.70288e-19
-3.59073e-20
2.46293e-19
-2.34324e-20
2.16352e-19
-1.47064e-20
1.77921e-19
-4.65461e-21
1.37295e-19
-6.37255e-22
8.7779e-20
3.31452e-20
-2.2418e-21
-3.78104e-20
-8.06012e-21
-1.01488e-19
-1.83359e-20
-1.5709e-19
-3.22348e-20
-2.04286e-19
-4.94082e-20
-2.43381e-19
-6.92789e-20
-2.75392e-19
-9.11962e-20
-3.0066e-19
-1.14704e-19
-3.19724e-19
-1.39314e-19
-3.33099e-19
-1.6467e-19
-3.41214e-19
-1.90331e-19
-3.44462e-19
-2.16023e-19
-3.43205e-19
-2.41358e-19
-3.37825e-19
-2.66108e-19
-3.28667e-19
-2.89923e-19
-3.16078e-19
-3.12651e-19
-3.00384e-19
-3.34009e-19
-2.81914e-19
-3.53899e-19
-2.60983e-19
-3.72046e-19
-2.37916e-19
-3.88401e-19
-2.12982e-19
-4.02773e-19
-1.86517e-19
-4.15126e-19
-1.58751e-19
-4.25353e-19
-1.30032e-19
-4.33411e-19
-1.00548e-19
-4.39256e-19
-7.06288e-20
-4.42858e-19
-4.04678e-20
-4.44229e-19
-1.03754e-20
-4.43362e-19
1.94705e-20
-4.40345e-19
4.87639e-20
-4.35177e-19
7.73793e-20
-4.28001e-19
1.05038e-19
-4.18805e-19
1.31629e-19
-4.07757e-19
1.56862e-19
-3.94826e-19
1.80629e-19
-3.80224e-19
2.02713e-19
-3.63943e-19
2.23053e-19
-3.46241e-19
2.41465e-19
-3.27116e-19
2.57872e-19
-3.06845e-19
2.72141e-19
-2.85469e-19
2.84177e-19
-2.63308e-19
2.93875e-19
-2.40418e-19
3.01152e-19
-2.17147e-19
3.0586e-19
-1.93556e-19
3.07854e-19
-1.70013e-19
3.06946e-19
-1.46617e-19
3.02999e-19
-1.2368e-19
2.95827e-19
-1.01511e-19
2.8486e-19
-8.0724e-20
2.70258e-19
-6.08751e-20
2.52386e-19
-4.37463e-20
2.28208e-19
-2.84292e-20
1.99053e-19
-1.47562e-20
1.6823e-19
-9.00959e-21
1.27163e-19
-3.62909e-21
8.25856e-20
2.95216e-20
-2.51357e-21
-3.50677e-20
-9.51041e-21
-9.37474e-20
-2.15528e-20
-1.44799e-19
-3.78398e-20
-1.87899e-19
-5.78646e-20
-2.23593e-19
-8.09527e-20
-2.52735e-19
-1.06334e-19
-2.75662e-19
-1.33587e-19
-2.9293e-19
-1.62057e-19
-3.05021e-19
-1.91429e-19
-3.12339e-19
-2.21065e-19
-3.15201e-19
-2.50829e-19
-3.14023e-19
-2.8001e-19
-3.09064e-19
-3.08682e-19
-3.00683e-19
-3.36082e-19
-2.89111e-19
-3.62498e-19
-2.74772e-19
-3.87009e-19
-2.57848e-19
-4.10135e-19
-2.3873e-19
-4.30865e-19
-2.17566e-19
-4.49965e-19
-1.94798e-19
-4.6626e-19
-1.70522e-19
-4.80764e-19
-1.45195e-19
-4.92178e-19
-1.18838e-19
-5.01733e-19
-9.1918e-20
-5.08019e-19
-6.44353e-20
-5.1244e-19
-3.68619e-20
-5.135e-19
-9.17785e-21
-5.12792e-19
1.8103e-20
-5.08726e-19
4.50577e-20
-5.03058e-19
7.12105e-20
-4.94163e-19
9.66707e-20
-4.83891e-19
1.20957e-19
-4.70561e-19
1.44165e-19
-4.56047e-19
1.65803e-19
-4.38635e-19
1.86026e-19
-4.2025e-19
2.04445e-19
-3.99263e-19
2.21257e-19
-3.77585e-19
2.36138e-19
-3.53692e-19
2.4915e-19
-3.29414e-19
2.59995e-19
-3.03345e-19
2.68826e-19
-2.7728e-19
2.7538e-19
-2.50003e-19
2.79692e-19
-2.23157e-19
2.81481e-19
-1.95702e-19
2.80705e-19
-1.69057e-19
2.77045e-19
-1.4252e-19
2.7033e-19
-1.17367e-19
2.60599e-19
-9.2841e-20
2.47469e-19
-7.08634e-20
2.29627e-19
-5.03882e-20
2.09115e-19
-3.28776e-20
1.84828e-19
-2.05409e-20
1.51618e-19
-7.04874e-21
1.17195e-19
-7.77286e-22
7.52604e-20
2.8706e-20
-2.5842e-21
-3.21527e-20
-1.11575e-20
-8.5131e-20
-2.48396e-20
-1.31065e-19
-4.36471e-20
-1.69518e-19
-6.64916e-20
-2.01348e-19
-9.27201e-20
-2.26977e-19
-1.21683e-19
-2.47287e-19
-1.525e-19
-2.62507e-19
-1.84896e-19
-2.73163e-19
-2.18007e-19
-2.79531e-19
-2.51737e-19
-2.82085e-19
-2.85147e-19
-2.80902e-19
-3.18417e-19
-2.76512e-19
-3.50514e-19
-2.68905e-19
-3.81859e-19
-2.58704e-19
-4.11252e-19
-2.4575e-19
-4.3942e-19
-2.30762e-19
-4.64992e-19