/*--------------------------------*- C++ -*----------------------------------*\
| =========                 |                                                 |
| \\      /  F ield         | OpenFOAM: The Open Source CFD Toolbox           |
|  \\    /   O peration     | Version:  5.0                                   |
|   \\  /    A nd           | Web:      www.OpenFOAM.org                      |
|    \\/     M anipulation  |                                                 |
\*---------------------------------------------------------------------------*/
FoamFile
{
    version     2.0;
    format      ascii;
    class       volScalarField;
    location    "316";
    object      p;
}
// * * * * * * * * * * * * * * * * * * * * * * * * * * * * * * * * * * * * * //

dimensions      [0 2 -2 0 0 0 0];

internalField   nonuniform List<scalar> 
1568
(
5.43725e-16
2.10311e-15
3.32126e-15
3.87346e-15
4.45584e-15
5.03242e-15
5.4108e-15
5.78734e-15
6.14806e-15
6.46934e-15
6.77293e-15
7.07295e-15
7.36984e-15
7.66041e-15
7.95169e-15
8.24808e-15
8.54789e-15
8.85404e-15
9.16555e-15
9.48549e-15
9.8105e-15
1.01441e-14
1.04692e-14
1.0715e-14
1.09009e-14
1.11475e-14
1.15407e-14
1.21134e-14
1.27561e-14
1.33295e-14
1.37238e-14
1.39748e-14
1.41602e-14
1.44067e-14
1.47302e-14
1.50656e-14
1.5386e-14
1.57089e-14
1.60187e-14
1.63243e-14
1.66218e-14
1.69188e-14
1.72071e-14
1.74996e-14
1.77913e-14
1.80901e-14
1.83959e-14
1.87204e-14
1.9063e-14
1.94349e-14
1.98569e-14
2.03448e-14
2.09056e-14
2.15506e-14
2.2609e-14
2.37861e-14
1.53936e-15
1.37921e-15
5.02843e-15
4.44966e-15
4.01255e-15
5.62606e-15
5.76742e-15
5.97822e-15
6.49091e-15
6.83334e-15
7.08701e-15
7.37474e-15
7.68146e-15
7.95492e-15
8.24687e-15
8.53754e-15
8.82151e-15
9.11715e-15
9.41497e-15
9.71979e-15
1.00211e-14
1.03426e-14
1.06616e-14
1.10311e-14
1.13784e-14
1.17356e-14
1.20679e-14
1.23566e-14
1.25094e-14
1.28357e-14
1.31635e-14
1.35083e-14
1.38123e-14
1.42034e-14
1.45145e-14
1.48647e-14
1.51331e-14
1.54689e-14
1.57421e-14
1.60385e-14
1.63258e-14
1.6646e-14
1.69105e-14
1.71993e-14
1.74745e-14
1.77831e-14
1.80846e-14
1.84178e-14
1.87428e-14
1.91539e-14
1.96291e-14
2.00663e-14
2.06733e-14
2.10597e-14
2.2506e-14
2.32059e-14
2.50124e-15
3.87602e-15
2.45931e-15
4.45341e-15
5.29052e-15
5.71356e-15
5.8405e-15
6.43202e-15
6.78937e-15
6.91226e-15
7.36564e-15
7.72975e-15
7.92259e-15
8.20315e-15
8.50034e-15
8.73306e-15
9.01071e-15
9.28707e-15
9.57279e-15
9.83874e-15
1.0128e-14
1.04199e-14
1.0741e-14
1.10298e-14
1.13317e-14
1.15755e-14
1.18955e-14
1.22463e-14
1.26277e-14
1.29404e-14
1.32593e-14
1.35607e-14
1.39396e-14
1.4225e-14
1.4509e-14
1.47703e-14
1.50942e-14
1.53298e-14
1.56205e-14
1.59004e-14
1.61302e-14
1.63273e-14
1.66386e-14
1.69016e-14
1.71983e-14
1.74869e-14
1.77919e-14
1.81144e-14
1.84782e-14
1.88569e-14
1.9207e-14
1.95068e-14
2.06052e-14
2.08613e-14
2.17034e-14
2.24558e-14
3.12285e-15
4.05021e-15
5.29977e-15
5.10661e-15
5.96787e-15
6.31594e-15
6.47355e-15
7.02107e-15
7.45787e-15
7.71683e-15
7.96122e-15
8.20648e-15
8.49204e-15
8.7912e-15
9.00928e-15
9.28203e-15
9.54179e-15
9.77607e-15
1.00022e-14
1.02824e-14
1.05268e-14
1.07724e-14
1.0999e-14
1.12534e-14
1.14797e-14
1.17441e-14
1.20077e-14
1.23069e-14
1.25935e-14
1.29003e-14
1.31638e-14
1.33611e-14
1.35455e-14
1.3773e-14
1.40452e-14
1.42955e-14
1.45501e-14
1.48187e-14
1.50508e-14
1.53159e-14
1.56021e-14
1.5902e-14
1.61471e-14
1.63984e-14
1.66625e-14
1.69385e-14
1.72036e-14
1.75497e-14
1.78898e-14
1.81827e-14
1.87723e-14
1.92735e-14
1.95281e-14
1.98389e-14
2.13077e-14
2.17519e-14
3.85995e-15
3.88827e-15
5.29118e-15
5.5202e-15
6.16125e-15
6.49374e-15
6.88948e-15
7.31964e-15
7.56505e-15
7.86776e-15
8.16338e-15
8.43556e-15
8.68608e-15
8.90989e-15
9.1393e-15
9.38783e-15
9.61995e-15
9.86254e-15
1.01037e-14
1.03404e-14
1.05735e-14
1.08153e-14
1.10622e-14
1.13165e-14
1.15545e-14
1.181e-14
1.20618e-14
1.2304e-14
1.25476e-14
1.28049e-14
1.30702e-14
1.33379e-14
1.35889e-14
1.38381e-14
1.40997e-14
1.43397e-14
1.45573e-14
1.47995e-14
1.50329e-14
1.52545e-14
1.54712e-14
1.56955e-14
1.59207e-14
1.61694e-14
1.6419e-14
1.66898e-14
1.69846e-14
1.72602e-14
1.75444e-14
1.80052e-14
1.83518e-14
1.84199e-14
1.93795e-14
1.99824e-14
2.03207e-14
2.09445e-14
4.76162e-15
5.33303e-15
5.95371e-15
6.42229e-15
6.67469e-15
6.96976e-15
7.49903e-15
7.83876e-15
8.00116e-15
8.29603e-15
8.5962e-15
8.83742e-15
9.05645e-15
9.29244e-15
9.5305e-15
9.73172e-15
9.93035e-15
1.01422e-14
1.03589e-14
1.0557e-14
1.07689e-14
1.09932e-14
1.12119e-14
1.14264e-14
1.16473e-14
1.18595e-14
1.2088e-14
1.23245e-14
1.25557e-14
1.27823e-14
1.30009e-14
1.32217e-14
1.3457e-14
1.3675e-14
1.38753e-14
1.40872e-14
1.43033e-14
1.45154e-14
1.47314e-14
1.49478e-14
1.51573e-14
1.53723e-14
1.56014e-14
1.58194e-14
1.6058e-14
1.6302e-14
1.65317e-14
1.68456e-14
1.71686e-14
1.73323e-14
1.77937e-14
1.83865e-14
1.85491e-14
1.85751e-14
1.97999e-14
2.01609e-14
5.5917e-15
6.09267e-15
6.58531e-15
6.91377e-15
7.31742e-15
7.72073e-15
8.0435e-15
8.28225e-15
8.56376e-15
8.84232e-15
9.07032e-15
9.26876e-15
9.47473e-15
9.68399e-15
9.87801e-15
1.00714e-14
1.02689e-14
1.04552e-14
1.06389e-14
1.08323e-14
1.10234e-14
1.1203e-14
1.13848e-14
1.15725e-14
1.1765e-14
1.19561e-14
1.21511e-14
1.23449e-14
1.25428e-14
1.27406e-14
1.29226e-14
1.3099e-14
1.32851e-14
1.34697e-14
1.36509e-14
1.38389e-14
1.40371e-14
1.42211e-14
1.44047e-14
1.45978e-14
1.47974e-14
1.49959e-14
1.51945e-14
1.53954e-14
1.56107e-14
1.5833e-14
1.6062e-14
1.63155e-14
1.65617e-14
1.69007e-14
1.72709e-14
1.73105e-14
1.79832e-14
1.8568e-14
1.88661e-14
1.92868e-14
6.43674e-15
6.73326e-15
7.22899e-15
7.55426e-15
7.9756e-15
8.26879e-15
8.48031e-15
8.71755e-15
9.00525e-15
9.2122e-15
9.41324e-15
9.61569e-15
9.81142e-15
9.98964e-15
1.01585e-14
1.03319e-14
1.0504e-14
1.06694e-14
1.08347e-14
1.10016e-14
1.1165e-14
1.13318e-14
1.14989e-14
1.16676e-14
1.18345e-14
1.20066e-14
1.21758e-14
1.23464e-14
1.25209e-14
1.26925e-14
1.2873e-14
1.30516e-14
1.32127e-14
1.33793e-14
1.35571e-14
1.37239e-14
1.38831e-14
1.40484e-14
1.4212e-14
1.43772e-14
1.45418e-14
1.47065e-14
1.48777e-14
1.50586e-14
1.52471e-14
1.54425e-14
1.56351e-14
1.58809e-14
1.61349e-14
1.63132e-14
1.66384e-14
1.70306e-14
1.72751e-14
1.72617e-14
1.81373e-14
1.84324e-14
7.32815e-15
7.60837e-15
8.10795e-15
8.34878e-15
8.6264e-15
8.79859e-15
9.06388e-15
9.3124e-15
9.50798e-15
9.69517e-15
9.8755e-15
1.00315e-14
1.0202e-14
1.03641e-14
1.05118e-14
1.06567e-14
1.07972e-14
1.09411e-14
1.10839e-14
1.12193e-14
1.13581e-14
1.15086e-14
1.16488e-14
1.1789e-14
1.19325e-14
1.2076e-14
1.22194e-14
1.23657e-14
1.2511e-14
1.26524e-14
1.27993e-14
1.29454e-14
1.30903e-14
1.3232e-14
1.3373e-14
1.35117e-14
1.36501e-14
1.37909e-14
1.39342e-14
1.40766e-14
1.4219e-14
1.43683e-14
1.4522e-14
1.46733e-14
1.4833e-14
1.50093e-14
1.51907e-14
1.53791e-14
1.55584e-14
1.58007e-14
1.61059e-14
1.61425e-14
1.65894e-14
1.69594e-14
1.72271e-14
1.75244e-14
8.2396e-15
8.48962e-15
8.841e-15
9.02612e-15
9.27999e-15
9.43974e-15
9.70377e-15
9.89065e-15
1.0012e-14
1.01844e-14
1.03492e-14
1.04818e-14
1.0614e-14
1.07436e-14
1.08627e-14
1.09889e-14
1.11077e-14
1.12226e-14
1.13363e-14
1.14602e-14
1.15718e-14
1.16807e-14
1.17962e-14
1.19148e-14
1.20286e-14
1.21442e-14
1.22633e-14
1.23825e-14
1.24982e-14
1.26175e-14
1.27295e-14
1.28414e-14
1.29567e-14
1.30734e-14
1.31861e-14
1.32978e-14
1.34163e-14
1.35342e-14
1.36495e-14
1.37653e-14
1.38849e-14
1.40089e-14
1.41319e-14
1.42602e-14
1.43983e-14
1.45396e-14
1.46736e-14
1.48506e-14
1.50318e-14
1.51575e-14
1.53994e-14
1.56053e-14
1.58808e-14
1.58899e-14
1.64128e-14
1.66242e-14
9.1564e-15
9.34652e-15
9.58118e-15
9.77061e-15
9.98708e-15
1.01006e-14
1.02857e-14
1.04189e-14
1.05404e-14
1.06756e-14
1.07852e-14
1.09035e-14
1.10102e-14
1.11062e-14
1.12034e-14
1.13016e-14
1.13981e-14
1.14888e-14
1.15782e-14
1.16664e-14
1.17604e-14
1.18462e-14
1.19371e-14
1.20228e-14
1.21115e-14
1.22019e-14
1.23004e-14
1.23947e-14
1.2489e-14
1.25814e-14
1.26681e-14
1.27585e-14
1.28499e-14
1.29392e-14
1.30296e-14
1.31198e-14
1.32092e-14
1.32981e-14
1.33879e-14
1.348e-14
1.35733e-14
1.36665e-14
1.37625e-14
1.38641e-14
1.39716e-14
1.40781e-14
1.41953e-14
1.43348e-14
1.44408e-14
1.45714e-14
1.48283e-14
1.48476e-14
1.50413e-14
1.52788e-14
1.5528e-14
1.5695e-14
1.00909e-14
1.02365e-14
1.04038e-14
1.05331e-14
1.06956e-14
1.07576e-14
1.08933e-14
1.099e-14
1.10763e-14
1.1176e-14
1.12609e-14
1.13313e-14
1.14024e-14
1.14858e-14
1.1565e-14
1.16247e-14
1.16881e-14
1.17561e-14
1.18261e-14
1.18838e-14
1.19513e-14
1.20176e-14
1.20855e-14
1.21526e-14
1.22262e-14
1.2289e-14
1.23444e-14
1.2395e-14
1.2456e-14
1.25247e-14
1.25984e-14
1.26675e-14
1.27304e-14
1.27927e-14
1.28566e-14
1.29261e-14
1.2988e-14
1.30506e-14
1.31167e-14
1.31829e-14
1.3248e-14
1.33186e-14
1.33905e-14
1.34659e-14
1.3543e-14
1.36191e-14
1.36969e-14
1.37905e-14
1.38999e-14
1.3977e-14
1.40801e-14
1.41581e-14
1.4427e-14
1.44197e-14
1.46091e-14
1.47617e-14
1.10282e-14
1.11242e-14
1.12284e-14
1.12979e-14
1.1397e-14
1.14209e-14
1.1521e-14
1.15833e-14
1.16219e-14
1.16731e-14
1.17707e-14
1.18153e-14
1.18177e-14
1.18795e-14
1.19202e-14
1.19567e-14
1.19977e-14
1.20384e-14
1.20773e-14
1.21159e-14
1.21503e-14
1.21909e-14
1.22234e-14
1.22544e-14
1.22871e-14
1.23287e-14
1.23761e-14
1.24311e-14
1.24754e-14
1.2504e-14
1.25343e-14
1.25706e-14
1.26084e-14
1.26496e-14
1.26871e-14
1.27189e-14
1.27595e-14
1.27999e-14
1.2838e-14
1.28765e-14
1.29155e-14
1.29571e-14
1.29983e-14
1.30482e-14
1.30629e-14
1.31148e-14
1.31905e-14
1.32624e-14
1.32891e-14
1.33007e-14
1.35169e-14
1.35018e-14
1.34774e-14
1.35632e-14
1.37913e-14
1.38262e-14
1.19742e-14
1.20111e-14
1.20314e-14
1.20672e-14
1.21135e-14
1.20948e-14
1.21476e-14
1.21697e-14
1.21819e-14
1.22e-14
1.22277e-14
1.22339e-14
1.22408e-14
1.22764e-14
1.22727e-14
1.22851e-14
1.23031e-14
1.23124e-14
1.23203e-14
1.23362e-14
1.23496e-14
1.23614e-14
1.23746e-14
1.2395e-14
1.24063e-14
1.24179e-14
1.24205e-14
1.24236e-14
1.24337e-14
1.24514e-14
1.24658e-14
1.24804e-14
1.249e-14
1.25007e-14
1.25172e-14
1.25249e-14
1.25404e-14
1.25513e-14
1.25612e-14
1.2576e-14
1.25887e-14
1.25961e-14
1.26018e-14
1.26308e-14
1.26373e-14
1.26524e-14
1.26645e-14
1.26781e-14
1.27185e-14
1.27546e-14
1.27409e-14
1.26332e-14
1.29477e-14
1.28789e-14
1.28068e-14
1.28731e-14
1.29176e-14
1.29055e-14
1.28538e-14
1.28358e-14
1.28388e-14
1.27689e-14
1.27753e-14
1.27517e-14
1.27148e-14
1.27118e-14
1.26802e-14
1.26674e-14
1.26669e-14
1.26303e-14
1.26256e-14
1.26164e-14
1.26004e-14
1.25837e-14
1.25727e-14
1.2561e-14
1.25458e-14
1.25281e-14
1.25186e-14
1.25101e-14
1.24974e-14
1.24789e-14
1.24627e-14
1.24379e-14
1.24201e-14
1.24124e-14
1.24025e-14
1.23866e-14
1.23733e-14
1.23553e-14
1.23423e-14
1.23325e-14
1.23163e-14
1.22995e-14
1.22884e-14
1.22729e-14
1.22589e-14
1.22474e-14
1.22453e-14
1.22104e-14
1.22039e-14
1.21899e-14
1.21645e-14
1.21719e-14
1.21158e-14
1.20361e-14
1.21615e-14
1.21051e-14
1.19493e-14
1.1801e-14
1.20291e-14
1.19377e-14
1.38672e-14
1.38275e-14
1.36676e-14
1.3598e-14
1.35633e-14
1.34402e-14
1.34057e-14
1.33408e-14
1.32692e-14
1.3239e-14
1.3148e-14
1.30931e-14
1.30889e-14
1.30296e-14
1.29896e-14
1.29482e-14
1.29046e-14
1.28675e-14
1.28273e-14
1.27828e-14
1.27417e-14
1.27084e-14
1.26603e-14
1.26095e-14
1.25636e-14
1.25248e-14
1.24971e-14
1.2473e-14
1.24351e-14
1.2387e-14
1.23338e-14
1.22919e-14
1.22545e-14
1.22176e-14
1.21705e-14
1.21328e-14
1.20884e-14
1.20526e-14
1.20124e-14
1.19696e-14
1.1927e-14
1.18889e-14
1.18416e-14
1.17848e-14
1.17773e-14
1.17324e-14
1.16332e-14
1.1578e-14
1.15495e-14
1.1524e-14
1.1376e-14
1.11547e-14
1.14653e-14
1.12789e-14
1.10187e-14
1.09798e-14
1.48036e-14
1.46865e-14
1.44754e-14
1.43704e-14
1.42774e-14
1.40984e-14
1.40278e-14
1.39237e-14
1.38133e-14
1.37386e-14
1.3648e-14
1.35664e-14
1.34953e-14
1.34151e-14
1.33421e-14
1.32703e-14
1.32049e-14
1.31363e-14
1.307e-14
1.30027e-14
1.29388e-14
1.28719e-14
1.28093e-14
1.27506e-14
1.26905e-14
1.26194e-14
1.25411e-14
1.24596e-14
1.23904e-14
1.23266e-14
1.22667e-14
1.22036e-14
1.21347e-14
1.2067e-14
1.20022e-14
1.19369e-14
1.18711e-14
1.18042e-14
1.17362e-14
1.167e-14
1.1602e-14
1.15338e-14
1.14602e-14
1.13805e-14
1.13074e-14
1.12254e-14
1.11316e-14
1.10822e-14
1.09407e-14
1.07653e-14
1.08414e-14
1.07115e-14
1.03505e-14
1.01408e-14
1.02675e-14
1.00543e-14
1.57445e-14
1.56078e-14
1.52868e-14
1.51203e-14
1.49903e-14
1.47609e-14
1.46449e-14
1.45015e-14
1.43507e-14
1.4237e-14
1.41192e-14
1.40055e-14
1.39e-14
1.37966e-14
1.36973e-14
1.3603e-14
1.35085e-14
1.34123e-14
1.33206e-14
1.32294e-14
1.31397e-14
1.30415e-14
1.29505e-14
1.28522e-14
1.27602e-14
1.26648e-14
1.25819e-14
1.24862e-14
1.23986e-14
1.2298e-14
1.22085e-14
1.21068e-14
1.20186e-14
1.19196e-14
1.18359e-14
1.17355e-14
1.16497e-14
1.15506e-14
1.14649e-14
1.13648e-14
1.12742e-14
1.11703e-14
1.10799e-14
1.09679e-14
1.08666e-14
1.07622e-14
1.06373e-14
1.04862e-14
1.04027e-14
1.02999e-14
1.00263e-14
9.71014e-15
9.99571e-15
9.71577e-15
9.21203e-15
9.10392e-15
1.6665e-14
1.64421e-14
1.60866e-14
1.58563e-14
1.56867e-14
1.54125e-14
1.5251e-14
1.50693e-14
1.48803e-14
1.47379e-14
1.45838e-14
1.44418e-14
1.43022e-14
1.41812e-14
1.40475e-14
1.39348e-14
1.3802e-14
1.36969e-14
1.35646e-14
1.34618e-14
1.33262e-14
1.32276e-14
1.30925e-14
1.2991e-14
1.28515e-14
1.27519e-14
1.261e-14
1.2512e-14
1.23686e-14
1.22694e-14
1.21227e-14
1.20245e-14
1.18846e-14
1.17883e-14
1.16461e-14
1.15511e-14
1.1413e-14
1.13161e-14
1.11773e-14
1.10779e-14
1.09375e-14
1.08348e-14
1.06918e-14
1.05729e-14
1.04278e-14
1.0289e-14
1.01235e-14
1.0031e-14
9.78928e-15
9.49774e-15
9.57723e-15
9.35177e-15
8.79105e-15
8.4823e-15
8.52321e-15
8.20125e-15
1.75814e-14
1.73274e-14
1.68662e-14
1.65617e-14
1.63538e-14
1.60189e-14
1.58256e-14
1.56067e-14
1.5386e-14
1.51981e-14
1.5025e-14
1.48456e-14
1.4692e-14
1.45291e-14
1.43823e-14
1.42223e-14
1.40876e-14
1.3935e-14
1.38033e-14
1.36487e-14
1.35181e-14
1.33678e-14
1.3232e-14
1.30819e-14
1.29471e-14
1.27955e-14
1.26564e-14
1.25051e-14
1.23632e-14
1.22124e-14
1.20729e-14
1.19274e-14
1.17863e-14
1.16395e-14
1.14978e-14
1.13557e-14
1.12123e-14
1.10726e-14
1.09311e-14
1.07896e-14
1.06421e-14
1.05e-14
1.0346e-14
1.01914e-14
1.00248e-14
9.87293e-15
9.68394e-15
9.45111e-15
9.271e-15
9.21094e-15
8.74479e-15
8.2174e-15
8.61862e-15
8.29434e-15
7.46003e-15
7.26725e-15
1.84764e-14
1.81519e-14
1.76242e-14
1.72798e-14
1.70537e-14
1.66446e-14
1.6403e-14
1.61517e-14
1.58989e-14
1.56767e-14
1.54834e-14
1.52645e-14
1.50935e-14
1.4888e-14
1.47467e-14
1.45436e-14
1.44127e-14
1.41956e-14
1.40808e-14
1.38602e-14
1.37545e-14
1.35176e-14
1.34203e-14
1.31776e-14
1.30856e-14
1.28308e-14
1.27455e-14
1.24771e-14
1.23971e-14
1.21277e-14
1.20553e-14
1.1784e-14
1.17165e-14
1.14494e-14
1.13874e-14
1.11097e-14
1.10433e-14
1.07768e-14
1.0706e-14
1.04383e-14
1.03596e-14
1.00924e-14
9.99711e-15
9.74202e-15
9.63835e-15
9.36453e-15
9.1901e-15
8.97586e-15
8.79215e-15
8.25934e-15
8.25867e-15
8.2044e-15
7.37193e-15
6.75134e-15
6.88467e-15
6.40566e-15
1.93486e-14
1.89326e-14
1.84083e-14
1.78825e-14
1.76536e-14
1.726e-14
1.69403e-14
1.66759e-14
1.63848e-14
1.61616e-14
1.58982e-14
1.5705e-14
1.54705e-14
1.5302e-14
1.50527e-14
1.48996e-14
1.46594e-14
1.45292e-14
1.42696e-14
1.4149e-14
1.38798e-14
1.37709e-14
1.34961e-14
1.33836e-14
1.31014e-14
1.29917e-14
1.27011e-14
1.2592e-14
1.22929e-14
1.21849e-14
1.18806e-14
1.17714e-14
1.14716e-14
1.13632e-14
1.1074e-14
1.09857e-14
1.07134e-14
1.05998e-14
1.03312e-14
1.02252e-14
9.96634e-15
9.84838e-15
9.58664e-15
9.43237e-15
9.15364e-15
8.97823e-15
8.73463e-15
8.49917e-15
8.14662e-15
8.05087e-15
7.70586e-15
6.78919e-15
7.18351e-15
6.88409e-15
5.85214e-15
5.50572e-15
2.01941e-14
1.97178e-14
1.90652e-14
1.85457e-14
1.82097e-14
1.77623e-14
1.74264e-14
1.71201e-14
1.67931e-14
1.65409e-14
1.62665e-14
1.60428e-14
1.57682e-14
1.55825e-14
1.53146e-14
1.51587e-14
1.48709e-14
1.47379e-14
1.44396e-14
1.43251e-14
1.40042e-14
1.39101e-14
1.3561e-14
1.34895e-14
1.31225e-14
1.30652e-14
1.26782e-14
1.26323e-14
1.22239e-14
1.219e-14
1.17691e-14
1.17508e-14
1.13344e-14
1.13276e-14
1.09038e-14
1.09037e-14
1.04677e-14
1.04783e-14
1.00764e-14
1.00652e-14
9.64683e-15
9.6347e-15
9.23429e-15
9.17807e-15
8.79724e-15
8.71998e-15
8.2826e-15
8.13757e-15
7.7769e-15
7.45362e-15
6.96863e-15
6.98616e-15
6.34283e-15
5.40643e-15
5.23987e-15
4.69045e-15
2.10215e-14
2.05692e-14
1.97026e-14
1.93106e-14
1.88365e-14
1.83183e-14
1.80177e-14
1.76278e-14
1.73125e-14
1.69969e-14
1.67697e-14
1.64413e-14
1.62621e-14
1.59432e-14
1.58024e-14
1.54595e-14
1.53525e-14
1.49714e-14
1.49013e-14
1.44792e-14
1.4442e-14
1.39809e-14
1.39688e-14
1.3477e-14
1.34821e-14
1.29631e-14
1.29754e-14
1.24245e-14
1.24639e-14
1.18979e-14
1.19656e-14
1.1415e-14
1.1494e-14
1.09354e-14
1.10056e-14
1.04247e-14
1.04999e-14
9.9643e-15
9.97814e-15
9.45477e-15
9.48249e-15
8.97144e-15
8.9653e-15
8.49826e-15
8.45707e-15
7.9976e-15
7.87161e-15
7.45997e-15
7.26501e-15
6.79212e-15
6.58802e-15
5.88046e-15
5.4291e-15
5.49834e-15
4.26081e-15
3.84286e-15
2.17934e-14
2.11985e-14
2.00752e-14
1.97344e-14
1.92644e-14
1.87489e-14
1.84003e-14
1.80306e-14
1.76856e-14
1.7383e-14
1.70898e-14
1.68042e-14
1.6549e-14
1.62686e-14
1.60141e-14
1.57374e-14
1.55089e-14
1.52192e-14
1.49984e-14
1.47005e-14
1.44864e-14
1.4181e-14
1.39744e-14
1.36416e-14
1.34558e-14
1.31255e-14
1.29362e-14
1.25571e-14
1.23464e-14
1.19456e-14
1.17277e-14
1.13074e-14
1.11055e-14
1.07303e-14
1.05983e-14
1.02615e-14
1.01367e-14
9.73603e-15
9.64867e-15
9.33118e-15
9.2305e-15
8.86418e-15
8.72607e-15
8.34594e-15
8.18219e-15
7.8036e-15
7.63129e-15
7.22872e-15
6.9527e-15
6.46593e-15
6.2594e-15
5.70973e-15
5.24923e-15
4.65368e-15
3.70908e-15
3.0918e-15
2.25344e-14
2.19486e-14
2.09337e-14
2.02769e-14
1.97836e-14
1.91955e-14
1.87392e-14
1.84022e-14
1.79993e-14
1.77107e-14
1.73529e-14
1.71251e-14
1.67663e-14
1.65947e-14
1.62175e-14
1.60852e-14
1.56684e-14
1.55748e-14
1.51047e-14
1.50533e-14
1.45217e-14
1.4499e-14
1.39205e-14
1.39561e-14
1.33641e-14
1.34452e-14
1.27582e-14
1.27835e-14
1.20405e-14
1.21118e-14
1.14137e-14
1.16652e-14
1.10329e-14
1.11921e-14
1.04287e-14
1.05573e-14
9.81421e-15
9.96179e-15
9.28661e-15
9.30528e-15
8.60034e-15
8.71422e-15
8.10109e-15
8.14222e-15
7.57529e-15
7.55764e-15
6.97137e-15
6.86056e-15
6.3584e-15
6.1282e-15
5.49576e-15
4.98597e-15
4.62363e-15
3.91109e-15
2.95033e-15
2.34941e-15
2.32603e-14
2.24256e-14
2.13474e-14
2.06228e-14
2.01388e-14
1.9665e-14
1.92424e-14
1.88457e-14
1.84987e-14
1.81732e-14
1.78758e-14
1.75674e-14
1.72866e-14
1.69868e-14
1.67178e-14
1.64105e-14
1.61353e-14
1.58219e-14
1.55422e-14
1.52109e-14
1.4927e-14
1.45867e-14
1.42788e-14
1.38743e-14
1.35307e-14
1.31581e-14
1.28464e-14
1.2534e-14
1.23654e-14
1.20459e-14
1.17287e-14
1.13125e-14
1.09459e-14
1.05361e-14
1.02493e-14
9.90475e-15
9.63944e-15
9.30287e-15
9.01769e-15
8.73273e-15
8.49497e-15
8.18219e-15
7.90219e-15
7.60406e-15
7.32671e-15
7.02001e-15
6.71778e-15
6.39954e-15
6.04583e-15
5.65091e-15
5.24143e-15
4.76489e-15
4.2416e-15
3.51944e-15
2.49155e-15
1.62858e-15
2.38422e-14
2.26383e-14
2.16027e-14
2.09343e-14
2.03787e-14
1.989e-14
1.94672e-14
1.90884e-14
1.87442e-14
1.84197e-14
1.81132e-14
1.78124e-14
1.75219e-14
1.72265e-14
1.6937e-14
1.66359e-14
1.63396e-14
1.60268e-14
1.57195e-14
1.53918e-14
1.50724e-14
1.47297e-14
1.44136e-14
1.41616e-14
1.39825e-14
1.37239e-14
1.33348e-14
1.27504e-14
1.21182e-14
1.15363e-14
1.11542e-14
1.08973e-14
1.07227e-14
1.04673e-14
1.01559e-14
9.80696e-15
9.49248e-15
9.15811e-15
8.85333e-15
8.53435e-15
8.24215e-15
7.93254e-15
7.64855e-15
7.34791e-15
7.06205e-15
6.75574e-15
6.4543e-15
6.12569e-15
5.78334e-15
5.40001e-15
4.98225e-15
4.49463e-15
3.93859e-15
3.2713e-15
2.23939e-15
1.03677e-15
)
;

boundaryField
{
    top
    {
        type            zeroGradient;
    }
    bottom
    {
        type            zeroGradient;
    }
    rotatingWall
    {
        type            zeroGradient;
    }
    wall
    {
        type            zeroGradient;
    }
    frontAndBack
    {
        type            empty;
    }
}


// ************************************************************************* //
