/*--------------------------------*- C++ -*----------------------------------*\
| =========                 |                                                 |
| \\      /  F ield         | OpenFOAM: The Open Source CFD Toolbox           |
|  \\    /   O peration     | Version:  5.0                                   |
|   \\  /    A nd           | Web:      www.OpenFOAM.org                      |
|    \\/     M anipulation  |                                                 |
\*---------------------------------------------------------------------------*/
FoamFile
{
    version     2.0;
    format      ascii;
    class       volScalarField;
    location    "370";
    object      p;
}
// * * * * * * * * * * * * * * * * * * * * * * * * * * * * * * * * * * * * * //

dimensions      [0 2 -2 0 0 0 0];

internalField   nonuniform List<scalar> 
1568
(
6.0137e-17
2.76935e-16
4.36834e-16
5.24867e-16
6.05341e-16
6.79522e-16
7.36418e-16
7.89457e-16
8.39039e-16
8.84355e-16
9.27248e-16
9.6917e-16
1.01055e-15
1.05137e-15
1.09235e-15
1.13391e-15
1.17604e-15
1.21899e-15
1.26278e-15
1.30759e-15
1.35322e-15
1.39988e-15
1.44548e-15
1.47958e-15
1.50558e-15
1.53979e-15
1.59507e-15
1.67523e-15
1.76593e-15
1.8464e-15
1.902e-15
1.93662e-15
1.96253e-15
1.99648e-15
2.04194e-15
2.0887e-15
2.13407e-15
2.17905e-15
2.22273e-15
2.26566e-15
2.30772e-15
2.34932e-15
2.39012e-15
2.43107e-15
2.4721e-15
2.51392e-15
2.557e-15
2.60248e-15
2.65078e-15
2.70365e-15
2.7634e-15
2.83186e-15
2.91072e-15
3.00408e-15
3.15275e-15
3.32122e-15
1.93951e-16
2.66838e-16
5.61443e-16
5.78418e-16
5.99834e-16
7.36262e-16
7.79276e-16
8.23254e-16
8.82329e-16
9.29294e-16
9.69105e-16
1.00986e-15
1.05189e-15
1.09133e-15
1.13154e-15
1.1719e-15
1.21208e-15
1.25313e-15
1.29478e-15
1.33733e-15
1.38025e-15
1.42468e-15
1.4704e-15
1.52256e-15
1.57338e-15
1.62178e-15
1.66985e-15
1.70892e-15
1.73287e-15
1.77402e-15
1.82162e-15
1.86888e-15
1.9168e-15
1.97036e-15
2.01593e-15
2.06214e-15
2.103e-15
2.14743e-15
2.18781e-15
2.22895e-15
2.26961e-15
2.3118e-15
2.35045e-15
2.39063e-15
2.43039e-15
2.47256e-15
2.51565e-15
2.56179e-15
2.60915e-15
2.66533e-15
2.72897e-15
2.79479e-15
2.87486e-15
2.94938e-15
3.1312e-15
3.23848e-15
3.1295e-16
4.55609e-16
4.37629e-16
6.25594e-16
7.2116e-16
7.73026e-16
8.17743e-16
8.89681e-16
9.36536e-16
9.68019e-16
1.02236e-15
1.06749e-15
1.10002e-15
1.13921e-15
1.17917e-15
1.21416e-15
1.25237e-15
1.29071e-15
1.32979e-15
1.36756e-15
1.40721e-15
1.44709e-15
1.48897e-15
1.52904e-15
1.56789e-15
1.60256e-15
1.64654e-15
1.69563e-15
1.74664e-15
1.79307e-15
1.83686e-15
1.87503e-15
1.91857e-15
1.95822e-15
1.99766e-15
2.03564e-15
2.07791e-15
2.11355e-15
2.15307e-15
2.19187e-15
2.22708e-15
2.25997e-15
2.30085e-15
2.33829e-15
2.37848e-15
2.41904e-15
2.46161e-15
2.50682e-15
2.55757e-15
2.6117e-15
2.66619e-15
2.72264e-15
2.83588e-15
2.89569e-15
3.0323e-15
3.13375e-15
4.09563e-16
5.09928e-16
6.72059e-16
6.94945e-16
7.84007e-16
8.41692e-16
8.8808e-16
9.51065e-16
1.0023e-15
1.04389e-15
1.08252e-15
1.11877e-15
1.15786e-15
1.1972e-15
1.23014e-15
1.26693e-15
1.30285e-15
1.33697e-15
1.3707e-15
1.40831e-15
1.44371e-15
1.47938e-15
1.51395e-15
1.55034e-15
1.58423e-15
1.62107e-15
1.65925e-15
1.70094e-15
1.74218e-15
1.78467e-15
1.82335e-15
1.85598e-15
1.88731e-15
1.92209e-15
1.95981e-15
1.99544e-15
2.03143e-15
2.06825e-15
2.10227e-15
2.13808e-15
2.17559e-15
2.21407e-15
2.24891e-15
2.28472e-15
2.32216e-15
2.36099e-15
2.4003e-15
2.44679e-15
2.49371e-15
2.5394e-15
2.61088e-15
2.6803e-15
2.73086e-15
2.78959e-15
2.95807e-15
3.03266e-15
5.16263e-16
5.59111e-16
7.15333e-16
7.59192e-16
8.35085e-16
8.93677e-16
9.50014e-16
1.00118e-15
1.04027e-15
1.08425e-15
1.12435e-15
1.1615e-15
1.19706e-15
1.22978e-15
1.2626e-15
1.29654e-15
1.32897e-15
1.36227e-15
1.39551e-15
1.42842e-15
1.46129e-15
1.49502e-15
1.52917e-15
1.56404e-15
1.59772e-15
1.63293e-15
1.66816e-15
1.70298e-15
1.73767e-15
1.77328e-15
1.80933e-15
1.84561e-15
1.88035e-15
1.91486e-15
1.94978e-15
1.98327e-15
2.01494e-15
2.04849e-15
2.08127e-15
2.11308e-15
2.1445e-15
2.17667e-15
2.20918e-15
2.24394e-15
2.27892e-15
2.31636e-15
2.35664e-15
2.39627e-15
2.43892e-15
2.49638e-15
2.54646e-15
2.58262e-15
2.68238e-15
2.75878e-15
2.84084e-15
2.92146e-15
6.35853e-16
7.08364e-16
8.00259e-16
8.65818e-16
9.15395e-16
9.65182e-16
1.02545e-15
1.0703e-15
1.10407e-15
1.14513e-15
1.18357e-15
1.21718e-15
1.24899e-15
1.28131e-15
1.3134e-15
1.34252e-15
1.37145e-15
1.40125e-15
1.43128e-15
1.45991e-15
1.48966e-15
1.52025e-15
1.55046e-15
1.58046e-15
1.61115e-15
1.64121e-15
1.67279e-15
1.70525e-15
1.73741e-15
1.7691e-15
1.79994e-15
1.83056e-15
1.86202e-15
1.89224e-15
1.92117e-15
1.9511e-15
1.98121e-15
2.01068e-15
2.04059e-15
2.07062e-15
2.10016e-15
2.13022e-15
2.16172e-15
2.19271e-15
2.22568e-15
2.25979e-15
2.29383e-15
2.33539e-15
2.37928e-15
2.41272e-15
2.46964e-15
2.54111e-15
2.58138e-15
2.61235e-15
2.74989e-15
2.80875e-15
7.53834e-16
8.15545e-16
8.96142e-16
9.4652e-16
1.00126e-15
1.05404e-15
1.09706e-15
1.13457e-15
1.175e-15
1.21184e-15
1.24343e-15
1.27312e-15
1.30284e-15
1.33179e-15
1.35906e-15
1.38624e-15
1.41366e-15
1.43997e-15
1.46602e-15
1.49291e-15
1.51963e-15
1.5455e-15
1.57171e-15
1.59837e-15
1.62538e-15
1.65239e-15
1.67987e-15
1.70737e-15
1.73525e-15
1.76328e-15
1.79012e-15
1.81621e-15
1.84281e-15
1.86933e-15
1.89555e-15
1.92205e-15
1.94916e-15
1.9752e-15
2.00121e-15
2.02791e-15
2.05517e-15
2.08256e-15
2.11026e-15
2.13848e-15
2.1683e-15
2.19961e-15
2.23214e-15
2.26692e-15
2.30344e-15
2.34848e-15
2.39563e-15
2.42346e-15
2.49687e-15
2.56472e-15
2.62979e-15
2.68759e-15
8.75363e-16
9.20318e-16
9.95532e-16
1.03947e-15
1.09021e-15
1.1325e-15
1.16725e-15
1.20297e-15
1.24004e-15
1.26926e-15
1.2979e-15
1.32651e-15
1.35344e-15
1.37833e-15
1.40243e-15
1.42668e-15
1.45048e-15
1.47367e-15
1.49686e-15
1.52015e-15
1.54315e-15
1.56644e-15
1.58989e-15
1.61348e-15
1.6369e-15
1.66085e-15
1.68472e-15
1.70872e-15
1.73296e-15
1.75695e-15
1.78154e-15
1.80598e-15
1.82908e-15
1.8525e-15
1.87663e-15
1.89982e-15
1.92246e-15
1.94569e-15
1.9688e-15
1.99198e-15
2.01524e-15
2.03874e-15
2.06301e-15
2.08838e-15
2.1147e-15
2.1422e-15
2.17031e-15
2.20303e-15
2.23766e-15
2.26796e-15
2.31003e-15
2.36085e-15
2.40047e-15
2.42179e-15
2.52092e-15
2.56596e-15
1.0012e-15
1.04099e-15
1.10898e-15
1.14361e-15
1.18164e-15
1.21357e-15
1.24979e-15
1.28254e-15
1.31005e-15
1.33654e-15
1.36217e-15
1.38518e-15
1.40825e-15
1.43041e-15
1.45146e-15
1.47194e-15
1.49182e-15
1.51193e-15
1.53189e-15
1.55117e-15
1.57071e-15
1.59111e-15
1.61073e-15
1.63044e-15
1.65048e-15
1.67056e-15
1.69065e-15
1.71103e-15
1.73137e-15
1.75136e-15
1.77163e-15
1.79177e-15
1.81184e-15
1.83161e-15
1.85127e-15
1.87084e-15
1.8904e-15
1.9101e-15
1.93002e-15
1.94996e-15
1.97001e-15
1.99074e-15
2.0121e-15
2.03361e-15
2.05596e-15
2.08024e-15
2.10562e-15
2.13195e-15
2.15923e-15
2.19207e-15
2.22937e-15
2.25141e-15
2.30219e-15
2.3476e-15
2.39817e-15
2.4391e-15
1.12942e-15
1.16258e-15
1.21389e-15
1.24184e-15
1.2756e-15
1.30337e-15
1.3351e-15
1.36014e-15
1.38086e-15
1.40459e-15
1.42669e-15
1.44573e-15
1.4643e-15
1.48251e-15
1.49969e-15
1.51706e-15
1.53373e-15
1.55003e-15
1.56617e-15
1.58299e-15
1.59893e-15
1.61467e-15
1.6309e-15
1.64741e-15
1.66359e-15
1.6799e-15
1.69642e-15
1.71298e-15
1.72936e-15
1.74609e-15
1.76227e-15
1.77837e-15
1.79465e-15
1.81098e-15
1.82699e-15
1.84294e-15
1.85935e-15
1.87563e-15
1.89178e-15
1.90809e-15
1.92478e-15
1.94191e-15
1.95922e-15
1.9772e-15
1.99617e-15
2.01593e-15
2.03571e-15
2.0593e-15
2.08431e-15
2.10558e-15
2.13589e-15
2.16697e-15
2.20153e-15
2.21759e-15
2.28032e-15
2.31156e-15
1.25911e-15
1.2847e-15
1.32229e-15
1.34709e-15
1.3741e-15
1.3947e-15
1.41767e-15
1.43669e-15
1.4555e-15
1.47382e-15
1.48933e-15
1.50536e-15
1.52051e-15
1.53441e-15
1.54802e-15
1.56158e-15
1.57489e-15
1.58767e-15
1.6003e-15
1.61283e-15
1.62577e-15
1.63811e-15
1.65085e-15
1.66322e-15
1.67579e-15
1.6885e-15
1.70181e-15
1.71484e-15
1.72788e-15
1.74079e-15
1.75331e-15
1.76608e-15
1.77887e-15
1.79147e-15
1.80414e-15
1.81675e-15
1.82928e-15
1.8418e-15
1.85444e-15
1.86731e-15
1.88035e-15
1.89347e-15
1.90699e-15
1.92127e-15
1.93621e-15
1.95139e-15
1.96786e-15
1.98604e-15
2.00311e-15
2.02261e-15
2.05065e-15
2.06482e-15
2.09082e-15
2.11967e-15
2.1566e-15
2.18105e-15
1.39063e-15
1.40938e-15
1.43671e-15
1.45364e-15
1.47308e-15
1.48682e-15
1.50383e-15
1.51783e-15
1.53112e-15
1.54376e-15
1.5557e-15
1.56613e-15
1.57653e-15
1.58791e-15
1.5983e-15
1.60731e-15
1.6165e-15
1.62587e-15
1.63532e-15
1.6439e-15
1.65311e-15
1.66223e-15
1.67146e-15
1.68064e-15
1.69029e-15
1.69921e-15
1.70769e-15
1.71587e-15
1.72476e-15
1.73413e-15
1.7438e-15
1.75309e-15
1.76197e-15
1.77082e-15
1.77976e-15
1.78912e-15
1.79789e-15
1.80677e-15
1.81596e-15
1.82518e-15
1.83438e-15
1.84403e-15
1.85398e-15
1.86488e-15
1.8754e-15
1.88612e-15
1.89772e-15
1.90986e-15
1.92481e-15
1.93741e-15
1.95147e-15
1.9669e-15
1.9943e-15
2.00228e-15
2.0304e-15
2.04961e-15
1.52285e-15
1.53444e-15
1.55127e-15
1.56068e-15
1.57253e-15
1.58033e-15
1.59182e-15
1.60042e-15
1.60726e-15
1.61339e-15
1.62705e-15
1.63402e-15
1.63393e-15
1.64252e-15
1.64819e-15
1.65359e-15
1.65933e-15
1.6649e-15
1.67033e-15
1.67575e-15
1.68084e-15
1.6864e-15
1.69139e-15
1.69628e-15
1.70124e-15
1.70679e-15
1.71273e-15
1.71925e-15
1.72501e-15
1.7297e-15
1.73455e-15
1.73981e-15
1.74515e-15
1.75071e-15
1.75596e-15
1.76084e-15
1.76634e-15
1.77184e-15
1.77716e-15
1.78256e-15
1.78806e-15
1.79368e-15
1.79941e-15
1.80724e-15
1.8077e-15
1.81499e-15
1.82733e-15
1.83488e-15
1.84073e-15
1.84602e-15
1.86544e-15
1.87047e-15
1.87397e-15
1.88569e-15
1.90914e-15
1.91742e-15
1.65593e-15
1.65998e-15
1.66502e-15
1.66888e-15
1.67362e-15
1.67492e-15
1.67981e-15
1.68268e-15
1.68567e-15
1.68768e-15
1.69166e-15
1.69268e-15
1.6932e-15
1.69856e-15
1.69835e-15
1.6998e-15
1.70195e-15
1.70346e-15
1.70486e-15
1.70683e-15
1.70862e-15
1.71025e-15
1.71194e-15
1.71409e-15
1.7157e-15
1.71745e-15
1.71865e-15
1.71984e-15
1.72143e-15
1.72343e-15
1.72522e-15
1.72705e-15
1.72857e-15
1.73014e-15
1.73211e-15
1.73344e-15
1.73536e-15
1.73693e-15
1.73841e-15
1.74029e-15
1.74201e-15
1.74297e-15
1.74339e-15
1.74831e-15
1.74865e-15
1.75019e-15
1.75312e-15
1.75463e-15
1.75961e-15
1.76377e-15
1.76376e-15
1.75897e-15
1.78228e-15
1.77987e-15
1.77788e-15
1.78386e-15
1.78902e-15
1.78616e-15
1.78042e-15
1.77714e-15
1.77521e-15
1.76947e-15
1.76803e-15
1.76446e-15
1.76045e-15
1.75947e-15
1.75494e-15
1.75358e-15
1.75343e-15
1.74785e-15
1.74745e-15
1.74618e-15
1.74401e-15
1.74189e-15
1.74015e-15
1.73833e-15
1.73626e-15
1.734e-15
1.73227e-15
1.7306e-15
1.72868e-15
1.72646e-15
1.72441e-15
1.72175e-15
1.71948e-15
1.71788e-15
1.71611e-15
1.71395e-15
1.71199e-15
1.70971e-15
1.70775e-15
1.70605e-15
1.70387e-15
1.70167e-15
1.69987e-15
1.69776e-15
1.69571e-15
1.69419e-15
1.69388e-15
1.68844e-15
1.68778e-15
1.6862e-15
1.6823e-15
1.68191e-15
1.67607e-15
1.66885e-15
1.67601e-15
1.67123e-15
1.65835e-15
1.64739e-15
1.65878e-15
1.6513e-15
1.92232e-15
1.91355e-15
1.89495e-15
1.88472e-15
1.87663e-15
1.86383e-15
1.85652e-15
1.84728e-15
1.83866e-15
1.8338e-15
1.82029e-15
1.81281e-15
1.81282e-15
1.80418e-15
1.79845e-15
1.79269e-15
1.78666e-15
1.7812e-15
1.77555e-15
1.76959e-15
1.76387e-15
1.75875e-15
1.75259e-15
1.74625e-15
1.74024e-15
1.73461e-15
1.72961e-15
1.72493e-15
1.71931e-15
1.71308e-15
1.70652e-15
1.70076e-15
1.69523e-15
1.68981e-15
1.68361e-15
1.67813e-15
1.67214e-15
1.66678e-15
1.66103e-15
1.65512e-15
1.64911e-15
1.64356e-15
1.63721e-15
1.62872e-15
1.6285e-15
1.62169e-15
1.60745e-15
1.6007e-15
1.59512e-15
1.58896e-15
1.57346e-15
1.5537e-15
1.56951e-15
1.55272e-15
1.52557e-15
1.51735e-15
2.05459e-15
2.03718e-15
2.00878e-15
1.99277e-15
1.97692e-15
1.95686e-15
1.94398e-15
1.92912e-15
1.91496e-15
1.90376e-15
1.89097e-15
1.87998e-15
1.86974e-15
1.85833e-15
1.84826e-15
1.83831e-15
1.82896e-15
1.81935e-15
1.81008e-15
1.80065e-15
1.79158e-15
1.7821e-15
1.7731e-15
1.76419e-15
1.75536e-15
1.7456e-15
1.7355e-15
1.725e-15
1.71553e-15
1.70622e-15
1.69737e-15
1.68807e-15
1.67858e-15
1.66902e-15
1.65991e-15
1.65052e-15
1.64133e-15
1.63183e-15
1.62241e-15
1.61291e-15
1.60336e-15
1.59353e-15
1.58341e-15
1.57202e-15
1.56151e-15
1.55024e-15
1.53752e-15
1.52803e-15
1.51109e-15
1.49172e-15
1.48935e-15
1.47228e-15
1.43821e-15
1.41653e-15
1.40861e-15
1.38577e-15
2.18656e-15
2.16369e-15
2.12203e-15
2.09846e-15
2.07655e-15
2.04961e-15
2.03035e-15
2.00994e-15
1.99029e-15
1.97351e-15
1.95673e-15
1.94117e-15
1.92621e-15
1.91168e-15
1.89777e-15
1.88443e-15
1.87111e-15
1.85784e-15
1.84487e-15
1.83206e-15
1.81927e-15
1.80596e-15
1.79311e-15
1.77976e-15
1.76671e-15
1.7535e-15
1.74108e-15
1.72781e-15
1.71501e-15
1.70138e-15
1.6885e-15
1.67486e-15
1.66214e-15
1.64873e-15
1.63634e-15
1.62279e-15
1.61026e-15
1.5968e-15
1.58423e-15
1.57063e-15
1.55756e-15
1.5434e-15
1.53016e-15
1.51496e-15
1.50024e-15
1.48528e-15
1.46785e-15
1.44819e-15
1.43377e-15
1.41606e-15
1.38525e-15
1.35265e-15
1.35946e-15
1.32916e-15
1.27395e-15
1.2531e-15
2.31655e-15
2.28437e-15
2.23396e-15
2.20263e-15
2.17429e-15
2.14095e-15
2.11547e-15
2.08951e-15
2.06469e-15
2.04354e-15
2.02184e-15
2.00209e-15
1.98289e-15
1.96528e-15
1.94695e-15
1.93055e-15
1.91265e-15
1.89708e-15
1.87935e-15
1.86405e-15
1.84608e-15
1.83117e-15
1.81322e-15
1.79805e-15
1.77969e-15
1.76454e-15
1.74578e-15
1.73067e-15
1.71178e-15
1.69668e-15
1.67764e-15
1.66268e-15
1.64418e-15
1.62942e-15
1.61077e-15
1.59621e-15
1.57791e-15
1.56309e-15
1.54467e-15
1.52961e-15
1.51094e-15
1.49532e-15
1.47613e-15
1.45893e-15
1.43897e-15
1.41922e-15
1.39708e-15
1.37985e-15
1.34975e-15
1.31672e-15
1.30949e-15
1.27844e-15
1.2229e-15
1.18766e-15
1.16219e-15
1.12417e-15
2.44532e-15
2.40682e-15
2.34272e-15
2.30348e-15
2.26869e-15
2.2277e-15
2.19744e-15
2.16605e-15
2.13647e-15
2.10986e-15
2.08493e-15
2.06038e-15
2.03835e-15
2.01576e-15
1.99491e-15
1.97319e-15
1.95367e-15
1.93271e-15
1.91361e-15
1.89254e-15
1.87359e-15
1.85279e-15
1.83342e-15
1.81255e-15
1.79318e-15
1.77203e-15
1.75219e-15
1.73094e-15
1.71088e-15
1.68964e-15
1.66978e-15
1.64898e-15
1.6291e-15
1.60834e-15
1.58858e-15
1.56834e-15
1.54849e-15
1.52842e-15
1.50864e-15
1.48836e-15
1.46796e-15
1.44739e-15
1.42609e-15
1.40389e-15
1.38074e-15
1.35828e-15
1.33231e-15
1.30153e-15
1.27549e-15
1.25653e-15
1.20529e-15
1.15087e-15
1.15893e-15
1.11929e-15
1.02841e-15
9.94178e-16
2.57143e-15
2.52439e-15
2.44864e-15
2.40369e-15
2.36382e-15
2.31385e-15
2.27762e-15
2.24155e-15
2.20715e-15
2.17596e-15
2.1477e-15
2.11847e-15
2.09331e-15
2.06602e-15
2.04387e-15
2.01744e-15
1.99647e-15
1.96926e-15
1.9497e-15
1.92233e-15
1.90343e-15
1.87476e-15
1.85644e-15
1.8272e-15
1.80914e-15
1.77888e-15
1.76117e-15
1.72975e-15
1.71236e-15
1.68079e-15
1.66406e-15
1.63259e-15
1.61641e-15
1.58536e-15
1.56963e-15
1.53775e-15
1.52186e-15
1.49097e-15
1.47464e-15
1.44355e-15
1.42656e-15
1.39515e-15
1.37647e-15
1.34544e-15
1.32532e-15
1.29163e-15
1.26481e-15
1.2345e-15
1.20476e-15
1.1477e-15
1.12994e-15
1.10495e-15
1.02177e-15
9.58818e-16
9.26861e-16
8.70226e-16
2.6945e-15
2.63731e-15
2.55512e-15
2.49382e-15
2.4508e-15
2.39872e-15
2.35373e-15
2.3145e-15
2.27529e-15
2.242e-15
2.20677e-15
2.17778e-15
2.14635e-15
2.12028e-15
2.0887e-15
2.06453e-15
2.03396e-15
2.01166e-15
1.97976e-15
1.95831e-15
1.92563e-15
1.90494e-15
1.87167e-15
1.85061e-15
1.81663e-15
1.79563e-15
1.76063e-15
1.73933e-15
1.70348e-15
1.68236e-15
1.64642e-15
1.62569e-15
1.59047e-15
1.56994e-15
1.53541e-15
1.51635e-15
1.4831e-15
1.46209e-15
1.4292e-15
1.40879e-15
1.37637e-15
1.35465e-15
1.3218e-15
1.29711e-15
1.26205e-15
1.23449e-15
1.20089e-15
1.16629e-15
1.12198e-15
1.09685e-15
1.04958e-15
9.58857e-16
9.60354e-16
9.15791e-16
7.97812e-16
7.45235e-16
2.81407e-15
2.74798e-15
2.65021e-15
2.58515e-15
2.53168e-15
2.47314e-15
2.42439e-15
2.38007e-15
2.33661e-15
2.29943e-15
2.26187e-15
2.22914e-15
2.19351e-15
2.16461e-15
2.13038e-15
2.10427e-15
2.06901e-15
2.04476e-15
2.00883e-15
1.98586e-15
1.9482e-15
1.92648e-15
1.88664e-15
1.86639e-15
1.82511e-15
1.8056e-15
1.76237e-15
1.74305e-15
1.69798e-15
1.6795e-15
1.63383e-15
1.61711e-15
1.5723e-15
1.55649e-15
1.51131e-15
1.49631e-15
1.45033e-15
1.43629e-15
1.39297e-15
1.37718e-15
1.33247e-15
1.31663e-15
1.2729e-15
1.25308e-15
1.20959e-15
1.18723e-15
1.13822e-15
1.1087e-15
1.0627e-15
1.01715e-15
9.57834e-16
9.32829e-16
8.57279e-16
7.62414e-16
6.98055e-16
6.27869e-16
2.92985e-15
2.85981e-15
2.74093e-15
2.68084e-15
2.61343e-15
2.5474e-15
2.4992e-15
2.44668e-15
2.40241e-15
2.35942e-15
2.32371e-15
2.28213e-15
2.25191e-15
2.21221e-15
2.18561e-15
2.14484e-15
2.12102e-15
2.07775e-15
2.05658e-15
2.0102e-15
1.99111e-15
1.94165e-15
1.92418e-15
1.87233e-15
1.85588e-15
1.80181e-15
1.78537e-15
1.72856e-15
1.71396e-15
1.65612e-15
1.64392e-15
1.58787e-15
1.57686e-15
1.52013e-15
1.50836e-15
1.45009e-15
1.43926e-15
1.3849e-15
1.36948e-15
1.31577e-15
1.30157e-15
1.24874e-15
1.23202e-15
1.18185e-15
1.16133e-15
1.11023e-15
1.08204e-15
1.03185e-15
9.95683e-16
9.37629e-16
8.96631e-16
8.168e-16
7.50175e-16
7.23202e-16
5.79184e-16
5.10875e-16
3.03873e-15
2.95442e-15
2.80947e-15
2.7498e-15
2.67988e-15
2.61121e-15
2.55792e-15
2.50523e-15
2.45741e-15
2.41418e-15
2.37283e-15
2.33319e-15
2.29655e-15
2.25849e-15
2.22282e-15
2.18556e-15
2.1519e-15
2.11367e-15
2.0804e-15
2.04126e-15
2.00811e-15
1.96813e-15
1.93538e-15
1.89329e-15
1.86244e-15
1.82059e-15
1.78773e-15
1.73978e-15
1.70397e-15
1.65487e-15
1.62054e-15
1.57277e-15
1.54114e-15
1.49611e-15
1.46853e-15
1.42605e-15
1.39914e-15
1.35224e-15
1.32795e-15
1.2874e-15
1.26252e-15
1.21841e-15
1.19092e-15
1.14582e-15
1.11547e-15
1.06907e-15
1.03666e-15
9.86056e-16
9.4243e-16
8.82138e-16
8.39295e-16
7.67428e-16
6.98514e-16
6.21989e-16
4.88431e-16
4.03342e-16
3.14221e-15
3.04978e-15
2.9026e-15
2.81847e-15
2.74613e-15
2.67094e-15
2.60905e-15
2.55845e-15
2.50558e-15
2.46255e-15
2.41605e-15
2.37975e-15
2.33477e-15
2.30341e-15
2.25787e-15
2.22961e-15
2.1813e-15
2.1556e-15
2.10329e-15
2.08023e-15
2.02325e-15
2.00189e-15
1.94135e-15
1.92333e-15
1.86364e-15
1.85127e-15
1.78113e-15
1.75801e-15
1.68141e-15
1.66102e-15
1.58906e-15
1.58739e-15
1.52402e-15
1.51432e-15
1.44118e-15
1.43076e-15
1.35921e-15
1.3503e-15
1.28439e-15
1.26735e-15
1.19976e-15
1.18906e-15
1.12703e-15
1.1104e-15
1.05093e-15
1.02942e-15
9.67072e-16
9.36006e-16
8.76211e-16
8.33863e-16
7.59558e-16
6.89459e-16
6.25984e-16
5.36504e-16
3.93519e-16
3.00041e-16
3.24554e-15
3.13019e-15
2.96845e-15
2.8768e-15
2.8035e-15
2.73454e-15
2.67433e-15
2.61955e-15
2.57053e-15
2.52471e-15
2.4819e-15
2.43951e-15
2.39933e-15
2.3583e-15
2.31911e-15
2.27766e-15
2.2378e-15
2.19546e-15
2.15458e-15
2.11029e-15
2.06817e-15
2.02232e-15
1.97684e-15
1.92226e-15
1.87129e-15
1.82184e-15
1.77473e-15
1.73425e-15
1.7091e-15
1.66816e-15
1.62061e-15
1.56838e-15
1.51589e-15
1.46128e-15
1.41711e-15
1.3711e-15
1.3299e-15
1.28543e-15
1.24401e-15
1.20386e-15
1.1661e-15
1.12427e-15
1.08429e-15
1.04367e-15
1.00335e-15
9.61269e-16
9.18205e-16
8.72754e-16
8.22643e-16
7.68541e-16
7.09644e-16
6.40362e-16
5.6397e-16
4.73086e-16
3.13366e-16
1.96917e-16
3.32834e-15
3.15829e-15
3.01101e-15
2.91685e-15
2.83796e-15
2.76928e-15
2.70982e-15
2.65661e-15
2.60809e-15
2.56257e-15
2.51939e-15
2.47729e-15
2.43624e-15
2.39496e-15
2.35398e-15
2.31198e-15
2.26992e-15
2.22633e-15
2.18263e-15
2.13709e-15
2.09161e-15
2.04407e-15
1.99884e-15
1.96414e-15
1.93835e-15
1.90294e-15
1.84754e-15
1.7661e-15
1.67568e-15
1.59435e-15
1.53934e-15
1.50395e-15
1.47836e-15
1.44341e-15
1.39848e-15
1.3505e-15
1.30533e-15
1.25935e-15
1.21581e-15
1.17183e-15
1.13005e-15
1.08746e-15
1.04684e-15
1.0052e-15
9.64413e-16
9.21912e-16
8.79051e-16
8.33234e-16
7.8477e-16
7.31254e-16
6.72137e-16
6.03448e-16
5.2441e-16
4.30385e-16
2.83309e-16
1.13414e-16
)
;

boundaryField
{
    top
    {
        type            zeroGradient;
    }
    bottom
    {
        type            zeroGradient;
    }
    rotatingWall
    {
        type            zeroGradient;
    }
    wall
    {
        type            zeroGradient;
    }
    frontAndBack
    {
        type            empty;
    }
}


// ************************************************************************* //
