/*--------------------------------*- C++ -*----------------------------------*\
| =========                 |                                                 |
| \\      /  F ield         | OpenFOAM: The Open Source CFD Toolbox           |
|  \\    /   O peration     | Version:  5.0                                   |
|   \\  /    A nd           | Web:      www.OpenFOAM.org                      |
|    \\/     M anipulation  |                                                 |
\*---------------------------------------------------------------------------*/
FoamFile
{
    version     2.0;
    format      ascii;
    class       surfaceScalarField;
    location    "370";
    object      phi;
}
// * * * * * * * * * * * * * * * * * * * * * * * * * * * * * * * * * * * * * //

dimensions      [0 3 -1 0 0 0 0];

internalField   nonuniform List<scalar> 
19660
(
1.8318e-08
-1.68385e-09
-1.65358e-08
2.14822e-08
-2.06548e-09
-1.09879e-09
2.25936e-08
-1.88484e-09
7.73252e-10
2.25528e-08
-1.56399e-09
1.60467e-09
2.15503e-08
-1.21458e-09
2.21693e-09
1.98937e-08
-8.15618e-10
2.47209e-09
1.76493e-08
-3.21653e-10
2.56603e-09
1.47146e-08
2.54422e-10
2.68009e-09
1.10341e-08
8.00504e-10
2.87996e-09
6.75417e-09
1.15359e-09
3.12622e-09
2.3856e-09
9.32248e-10
3.43622e-09
-9.39979e-10
-6.04443e-10
3.92991e-09
-1.8104e-09
-3.47231e-09
4.34262e-09
-5.53848e-09
3.72802e-09
1.8693e-08
-1.19313e-09
-1.91838e-08
2.29278e-08
-2.08504e-09
-4.2155e-09
2.52718e-08
-2.33309e-09
-1.89597e-09
2.65509e-08
-2.34585e-09
-4.97482e-10
2.68389e-08
-2.1664e-09
6.63576e-10
2.65189e-08
-1.85952e-09
1.36373e-09
2.58097e-08
-1.44779e-09
1.83517e-09
2.47137e-08
-9.4139e-10
2.29165e-09
2.31062e-08
-3.80624e-10
2.78846e-09
2.08389e-08
1.13808e-10
3.30688e-09
1.76958e-08
2.16953e-10
3.85835e-09
1.31138e-08
-4.26564e-10
4.4039e-09
6.76284e-09
-2.24451e-09
5.12304e-09
-4.01873e-09
5.24302e-09
1.88686e-08
-1.25042e-09
-1.88113e-08
2.29678e-08
-2.08902e-09
-4.09542e-09
2.52579e-08
-2.47558e-09
-2.14785e-09
2.65646e-08
-2.67666e-09
-9.76055e-10
2.69488e-08
-2.6825e-09
1.31647e-10
2.67995e-08
-2.53194e-09
8.21508e-10
2.63157e-08
-2.26094e-09
1.29684e-09
2.54779e-08
-1.88318e-09
1.77945e-09
2.41857e-08
-1.41898e-09
2.33038e-09
2.22843e-08
-9.40605e-10
2.9557e-09
1.94243e-08
-5.99773e-10
3.67666e-09
1.51107e-08
-6.12457e-10
4.49946e-09
8.49378e-09
-1.13993e-09
5.51219e-09
-1.2804e-09
5.7554e-09
1.8781e-08
-1.29328e-09
-1.87382e-08
2.28259e-08
-2.15621e-09
-3.97784e-09
2.51281e-08
-2.64582e-09
-2.13214e-09
2.64771e-08
-2.95469e-09
-1.0711e-09
2.69044e-08
-3.05477e-09
-5.52931e-11
2.6801e-08
-2.99438e-09
5.65723e-10
2.63559e-08
-2.81037e-09
9.94374e-10
2.55185e-08
-2.5133e-09
1.46751e-09
2.41475e-08
-2.10475e-09
2.05667e-09
2.20456e-08
-1.62415e-09
2.78536e-09
1.89064e-08
-1.14813e-09
3.68759e-09
1.43287e-08
-7.84613e-10
4.74988e-09
7.71276e-09
-4.59585e-10
5.93552e-09
3.3364e-10
6.09871e-09
1.86587e-08
-1.34633e-09
-1.86056e-08
2.26079e-08
-2.26491e-09
-3.84066e-09
2.49023e-08
-2.80334e-09
-2.137e-09
2.62565e-08
-3.13549e-09
-1.17345e-09
2.67016e-08
-3.25592e-09
-2.44119e-10
2.66377e-08
-3.22442e-09
2.93853e-10
2.62345e-08
-3.0804e-09
6.73142e-10
2.54205e-08
-2.82291e-09
1.12361e-09
2.4027e-08
-2.44855e-09
1.73732e-09
2.18133e-08
-1.9763e-09
2.56592e-09
1.84549e-08
-1.44008e-09
3.6504e-09
1.36331e-08
-8.9341e-10
4.93071e-09
7.10497e-09
-1.58773e-10
6.22736e-09
1.14662e-09
6.29204e-09
1.85156e-08
-1.41359e-09
-1.84484e-08
2.23603e-08
-2.37166e-09
-3.73797e-09
2.46432e-08
-2.89709e-09
-2.18929e-09
2.59938e-08
-3.19172e-09
-1.29444e-09
2.64493e-08
-3.28581e-09
-4.25668e-10
2.64187e-08
-3.24345e-09
4.96509e-11
2.60599e-08
-3.09972e-09
3.78088e-10
2.52823e-08
-2.85733e-09
8.12062e-10
2.38997e-08
-2.51086e-09
1.44506e-09
2.16405e-08
-2.06574e-09
2.34874e-09
1.81645e-08
-1.53676e-09
3.57282e-09
1.32029e-08
-9.44568e-10
5.01301e-09
6.72703e-09
-6.37334e-11
6.38101e-09
1.49847e-09
6.37528e-09
1.83851e-08
-1.41928e-09
-1.83794e-08
2.21446e-08
-2.35452e-09
-3.77665e-09
2.44029e-08
-2.82713e-09
-2.3283e-09
2.57335e-08
-3.05452e-09
-1.46778e-09
2.61741e-08
-3.09874e-09
-6.27753e-10
2.6154e-08
-3.03216e-09
-1.9116e-10
2.58268e-08
-2.88375e-09
1.1135e-10
2.50857e-08
-2.65376e-09
5.37629e-10
2.37265e-08
-2.3393e-09
1.18777e-09
2.14544e-08
-1.94135e-09
2.14798e-09
1.79125e-08
-1.46765e-09
3.47306e-09
1.28624e-08
-9.18852e-10
5.02468e-09
6.42025e-09
-6.05631e-11
6.43925e-09
1.5277e-09
6.39118e-09
1.82905e-08
-1.29435e-09
-1.84154e-08
2.1964e-08
-2.1282e-09
-3.89972e-09
2.41821e-08
-2.52038e-09
-2.52494e-09
2.54794e-08
-2.6745e-09
-1.67726e-09
2.58922e-08
-2.67415e-09
-8.37437e-10
2.58642e-08
-2.59245e-09
-4.11641e-10
2.55529e-08
-2.45081e-09
-1.21534e-10
2.48448e-08
-2.24492e-09
2.99479e-10
2.3515e-08
-1.97567e-09
9.66419e-10
2.12451e-08
-1.64659e-09
1.97545e-09
1.76635e-08
-1.26157e-09
3.37586e-09
1.25526e-08
-8.12266e-10
5.00469e-09
6.13882e-09
-9.15189e-11
6.4452e-09
1.30386e-09
6.36286e-09
1.82076e-08
-1.03194e-09
-1.84699e-08
2.17819e-08
-1.69318e-09
-4.00927e-09
2.39623e-08
-1.98322e-09
-2.71752e-09
2.52323e-08
-2.06999e-09
-1.87452e-09
2.56219e-08
-2.04309e-09
-1.02062e-09
2.55834e-08
-1.96248e-09
-5.91388e-10
2.52851e-08
-1.84208e-09
-3.10205e-10
2.46096e-08
-1.67807e-09
1.08782e-10
2.33103e-08
-1.4721e-09
7.96095e-10
2.1049e-08
-1.22972e-09
1.84474e-09
1.7444e-08
-9.55052e-10
3.29893e-09
1.22936e-08
-6.39554e-10
4.97817e-09
5.90776e-09
-1.33175e-10
6.42798e-09
8.9756e-10
6.3143e-09
1.81123e-08
-6.90443e-10
-1.84537e-08
2.15915e-08
-1.13363e-09
-4.0387e-09
2.37522e-08
-1.30429e-09
-2.83952e-09
2.5017e-08
-1.32645e-09
-2.00827e-09
2.54024e-08
-1.28667e-09
-1.14174e-09
2.53655e-08
-1.22072e-09
-7.04819e-10
2.50833e-08
-1.13249e-09
-4.27234e-10
2.44363e-08
-1.02079e-09
-9.98657e-12
2.31633e-08
-8.88394e-10
6.89622e-10
2.09125e-08
-7.42522e-10
1.76403e-09
1.7295e-08
-5.88965e-10
3.25185e-09
1.21209e-08
-4.23789e-10
4.95885e-09
5.75415e-09
-1.72854e-10
6.40697e-09
3.81206e-10
6.27077e-09
1.80308e-08
-3.62967e-10
-1.83581e-08
2.14399e-08
-5.73805e-10
-3.9688e-09
2.3598e-08
-6.03699e-10
-2.85857e-09
2.48767e-08
-5.55414e-10
-2.0497e-09
2.52762e-08
-5.03281e-10
-1.18282e-09
2.52501e-08
-4.52441e-10
-7.4205e-10
2.49818e-08
-3.96556e-10
-4.67413e-10
2.43541e-08
-3.38367e-10
-5.44724e-11
2.30992e-08
-2.81654e-10
6.48476e-10
2.08566e-08
-2.33007e-10
1.73354e-09
1.72337e-08
-2.01687e-10
3.23608e-09
1.20493e-08
-1.9155e-10
4.95267e-09
5.68942e-09
-2.06533e-10
6.39417e-09
-1.78878e-10
6.24978e-09
1.79868e-08
-1.09336e-10
-1.82403e-08
2.1362e-08
-9.89377e-11
-3.84989e-09
2.35239e-08
2.55658e-11
-2.79104e-09
2.48291e-08
1.47371e-10
-2.00785e-09
2.5253e-08
2.23744e-10
-1.15088e-09
2.52422e-08
2.70202e-10
-7.11628e-10
2.49874e-08
3.00182e-10
-4.41784e-10
2.43715e-08
3.10908e-10
-3.31425e-11
2.3124e-08
2.99528e-10
6.66675e-10
2.0883e-08
2.58017e-10
1.75045e-09
1.72575e-08
1.71809e-10
3.25243e-09
1.20732e-08
2.7518e-11
4.96575e-09
5.71795e-09
-2.48342e-10
6.39771e-09
-7.08464e-10
6.24782e-09
1.79878e-08
8.1562e-11
-1.81785e-08
2.13805e-08
2.82008e-10
-3.7735e-09
2.35525e-08
5.40942e-10
-2.68719e-09
2.48771e-08
7.37956e-10
-1.91514e-09
2.53205e-08
8.47803e-10
-1.06728e-09
2.53242e-08
8.99989e-10
-6.3333e-10
2.50781e-08
9.13671e-10
-3.67176e-10
2.44624e-08
8.88119e-10
3.86834e-11
2.32089e-08
8.2069e-10
7.3269e-10
2.09589e-08
6.99849e-10
1.80857e-09
1.73263e-08
5.03978e-10
3.30096e-09
1.21413e-08
2.10615e-10
5.00242e-09
5.78529e-09
-3.13711e-10
6.42195e-09
-1.18684e-09
6.26395e-09
1.80564e-08
2.51914e-10
-1.82266e-08
2.15159e-08
5.88904e-10
-3.76621e-09
2.3699e-08
9.42121e-10
-2.58413e-09
2.50269e-08
1.2089e-09
-1.79861e-09
2.5476e-08
1.35436e-09
-9.55587e-10
2.54852e-08
1.41901e-09
-5.27999e-10
2.52356e-08
1.42619e-09
-2.62776e-10
2.46047e-08
1.37574e-09
1.43549e-10
2.3329e-08
1.26292e-09
8.33812e-10
2.10547e-08
1.07204e-09
1.90252e-09
1.74019e-08
7.74298e-10
3.38287e-09
1.22064e-08
3.41296e-10
5.06529e-09
5.84006e-09
-4.12302e-10
6.46554e-09
-1.64286e-09
6.29633e-09
1.81977e-08
4.15872e-10
-1.83615e-08
2.17458e-08
8.43238e-10
-3.80225e-09
2.3935e-08
1.25834e-09
-2.50517e-09
2.52585e-08
1.57538e-09
-1.68986e-09
2.57034e-08
1.75128e-09
-8.41682e-10
2.57065e-08
1.82924e-09
-4.13138e-10
2.54414e-08
1.83306e-09
-1.41549e-10
2.47813e-08
1.76316e-09
2.72905e-10
2.34674e-08
1.61093e-09
9.66244e-10
2.11522e-08
1.3549e-09
2.03271e-09
1.74652e-08
9.61687e-10
3.49999e-09
1.22506e-08
4.01875e-10
5.15447e-09
5.87412e-09
-5.58021e-10
6.52268e-09
-2.10291e-09
6.3344e-09
1.83789e-08
5.64723e-10
-1.85276e-08
2.20368e-08
1.05278e-09
-3.86718e-09
2.42397e-08
1.49569e-09
-2.44002e-09
2.55596e-08
1.845e-09
-1.58933e-09
2.59955e-08
2.04389e-09
-7.28338e-10
2.59842e-08
2.12806e-09
-2.87443e-10
2.56923e-08
2.12611e-09
-8.91146e-13
2.49887e-08
2.03778e-09
4.29141e-10
2.3621e-08
1.84569e-09
1.13321e-09
2.12508e-08
1.52526e-09
2.2002e-09
1.75215e-08
1.04343e-09
3.6479e-09
1.22884e-08
3.75106e-10
5.26019e-09
5.90992e-09
-7.61819e-10
6.58276e-09
-2.56622e-09
6.37343e-09
1.85654e-08
6.79865e-10
-1.86804e-08
2.23549e-08
1.19586e-09
-3.93238e-09
2.45874e-08
1.63614e-09
-2.37274e-09
2.59132e-08
1.99987e-09
-1.4805e-09
2.63454e-08
2.21077e-09
-5.98937e-10
2.6312e-08
2.29451e-09
-1.32854e-10
2.59778e-08
2.28216e-09
1.78291e-10
2.52175e-08
2.16809e-09
6.30094e-10
2.3786e-08
1.93172e-09
1.34567e-09
2.13558e-08
1.55001e-09
2.40573e-09
1.75889e-08
9.94192e-10
3.81641e-09
1.23516e-08
2.46358e-10
5.36635e-09
5.98113e-09
-1.02275e-09
6.63174e-09
-2.99332e-09
6.40838e-09
1.87415e-08
7.32238e-10
-1.87937e-08
2.2677e-08
1.23177e-09
-3.97128e-09
2.49616e-08
1.64466e-09
-2.29295e-09
2.63069e-08
1.99962e-09
-1.34489e-09
2.67432e-08
2.20195e-09
-4.27322e-10
2.66862e-08
2.2721e-09
7.94567e-11
2.63027e-08
2.24013e-09
4.25607e-10
2.54801e-08
2.09733e-09
8.93469e-10
2.39826e-08
1.82069e-09
1.60871e-09
2.15006e-08
1.39237e-09
2.63981e-09
1.77168e-08
7.92785e-10
3.98534e-09
1.25037e-08
9.51269e-12
5.45018e-09
6.14292e-09
-1.31468e-09
6.65291e-09
-3.28175e-09
6.43145e-09
1.89051e-08
6.97202e-10
-1.887e-08
2.29961e-08
1.12774e-09
-3.9868e-09
2.53497e-08
1.48305e-09
-2.19191e-09
2.67324e-08
1.79962e-09
-1.18255e-09
2.71749e-08
1.96983e-09
-2.10363e-10
2.70883e-08
2.01412e-09
3.44673e-10
2.66547e-08
1.9556e-09
7.18128e-10
2.57735e-08
1.78813e-09
1.19035e-09
2.4219e-08
1.48944e-09
1.8858e-09
2.17058e-08
1.04582e-09
2.85984e-09
1.79361e-08
4.50271e-10
4.11219e-09
1.27771e-08
-3.05893e-10
5.47453e-09
6.40202e-09
-1.56934e-09
6.62987e-09
-3.31623e-09
6.43655e-09
1.90631e-08
5.72679e-10
-1.89385e-08
2.33124e-08
8.79238e-10
-4.00071e-09
2.57396e-08
1.14504e-09
-2.08905e-09
2.71679e-08
1.3952e-09
-1.02384e-09
2.76201e-08
1.51371e-09
3.82078e-12
2.75034e-08
1.52395e-09
6.06836e-10
2.70208e-08
1.44439e-09
9.93747e-10
2.60881e-08
1.26682e-09
1.45395e-09
2.44926e-08
9.75188e-10
2.10967e-09
2.19703e-08
5.6179e-10
3.00624e-09
1.82397e-08
3.14893e-11
4.1493e-09
1.31453e-08
-6.22919e-10
5.41148e-09
6.71714e-09
-1.69597e-09
6.55473e-09
-3.02702e-09
6.42792e-09
1.92202e-08
3.79617e-10
-1.90272e-08
2.36158e-08
5.28305e-10
-4.04465e-09
2.61054e-08
6.84091e-10
-2.02859e-09
2.75591e-08
8.50097e-10
-9.08687e-10
2.80077e-08
9.14462e-10
1.50621e-10
2.78654e-08
8.9057e-10
7.75474e-10
2.7341e-08
7.98853e-10
1.16975e-09
2.63674e-08
6.33042e-10
1.60723e-09
2.47474e-08
3.84071e-10
2.21092e-09
2.2232e-08
5.12404e-11
3.02576e-09
1.85492e-08
-3.55774e-10
4.06995e-09
1.34992e-08
-8.42973e-10
5.26996e-09
6.98696e-09
-1.62813e-09
6.44421e-09
-2.45467e-09
6.41454e-09
1.93695e-08
1.61572e-10
-1.91515e-08
2.38859e-08
1.60816e-10
-4.14904e-09
2.64149e-08
2.04817e-10
-2.04981e-09
2.78779e-08
2.77919e-10
-8.90923e-10
2.83178e-08
2.93716e-10
1.80616e-10
2.81481e-08
2.5376e-10
8.06247e-10
2.75845e-08
1.72893e-10
1.18925e-09
2.65757e-08
4.64601e-11
1.59514e-09
2.49387e-08
-1.2769e-10
2.14847e-09
2.24335e-08
-3.43577e-10
2.89973e-09
1.87839e-08
-5.94377e-10
3.88798e-09
1.37409e-08
-8.85768e-10
5.08557e-09
7.13392e-09
-1.35608e-09
6.3346e-09
-1.73411e-09
6.41322e-09
1.94824e-08
-2.06552e-11
-1.93003e-08
2.40865e-08
-1.29262e-10
-4.31418e-09
2.66353e-08
-1.83841e-10
-2.1604e-09
2.80923e-08
-1.99622e-10
-9.79725e-10
2.85181e-08
-2.21339e-10
8.89913e-11
2.832e-08
-2.54285e-10
7.05721e-10
2.77205e-08
-2.98875e-10
1.0709e-09
2.66807e-08
-3.60621e-10
1.44647e-09
2.50282e-08
-4.39071e-10
1.96348e-09
2.25269e-08
-5.28028e-10
2.68537e-09
1.88848e-08
-6.2725e-10
3.67459e-09
1.38204e-08
-7.43726e-10
4.92189e-09
7.14494e-09
-9.47753e-10
6.26673e-09
-1.02159e-09
6.4322e-09
1.95262e-08
-1.52929e-10
-1.93941e-08
2.41812e-08
-3.168e-10
-4.46783e-09
2.67376e-08
-4.2937e-10
-2.31122e-09
2.81756e-08
-5.09622e-10
-1.12845e-09
2.85855e-08
-5.55689e-10
-7.60411e-11
2.83696e-08
-5.70854e-10
5.31922e-10
2.7749e-08
-5.69837e-10
8.91041e-10
2.66908e-08
-5.60831e-10
1.25789e-09
2.50281e-08
-5.46052e-10
1.76909e-09
2.25247e-08
-5.25331e-10
2.50019e-09
1.8875e-08
-5.03615e-10
3.52549e-09
1.37823e-08
-4.88813e-10
4.83723e-09
7.07827e-09
-5.00403e-10
6.25609e-09
-4.07454e-10
6.46383e-09
1.95187e-08
-2.50717e-10
-1.94212e-08
2.41906e-08
-4.39663e-10
-4.54948e-09
2.67488e-08
-5.82283e-10
-2.40576e-09
2.81809e-08
-7.08698e-10
-1.23362e-09
2.85928e-08
-7.75051e-10
-1.93157e-10
2.83827e-08
-7.82088e-10
4.20592e-10
2.7767e-08
-7.47527e-10
7.92699e-10
2.6711e-08
-6.80457e-10
1.17495e-09
2.50488e-08
-5.85505e-10
1.70091e-09
2.25425e-08
-4.70656e-10
2.4509e-09
1.88815e-08
-3.44755e-10
3.50147e-09
1.37663e-08
-2.16087e-10
4.84164e-09
7.04826e-09
-6.5321e-11
6.2822e-09
1.48526e-10
6.4919e-09
1.94818e-08
-3.42246e-10
-1.93906e-08
2.41315e-08
-5.61373e-10
-4.52855e-09
2.66907e-08
-7.50958e-10
-2.39115e-09
2.81477e-08
-9.37075e-10
-1.22932e-09
2.85906e-08
-1.03744e-09
-1.81301e-10
2.8412e-08
-1.05341e-09
4.49091e-10
2.78261e-08
-1.003e-09
8.40536e-10
2.67934e-08
-8.93196e-10
1.24456e-09
2.51442e-08
-7.27384e-10
1.79022e-09
2.26372e-08
-5.17339e-10
2.55277e-09
1.89651e-08
-2.76738e-10
3.60314e-09
1.38389e-08
-1.51763e-11
4.9244e-09
7.10852e-09
3.34574e-10
6.32949e-09
7.47615e-10
6.50897e-09
1.93937e-08
-4.64379e-10
-1.92719e-08
2.39736e-08
-7.43308e-10
-4.39859e-09
2.65291e-08
-1.00304e-09
-2.30404e-09
2.80202e-08
-1.26724e-09
-1.16163e-09
2.85064e-08
-1.41755e-09
-1.06921e-10
2.83764e-08
-1.45865e-09
5.34301e-10
2.78393e-08
-1.41018e-09
9.43332e-10
2.68468e-08
-1.27359e-09
1.37188e-09
2.52201e-08
-1.04795e-09
1.94622e-09
2.27126e-08
-7.4189e-10
2.73105e-09
1.90233e-08
-3.72931e-10
3.78446e-09
1.3885e-08
4.80129e-11
5.074e-09
7.1591e-09
6.48545e-10
6.41081e-09
1.3786e-09
6.52759e-09
1.92543e-08
-6.19323e-10
-1.90996e-08
2.37185e-08
-9.80774e-10
-4.22714e-09
2.6252e-08
-1.32258e-09
-2.21433e-09
2.77659e-08
-1.67067e-09
-1.11103e-09
2.8295e-08
-1.88256e-09
-6.478e-11
2.82216e-08
-1.96527e-09
5.79238e-10
2.77459e-08
-1.93617e-09
1.0007e-09
2.68052e-08
-1.78906e-09
1.45519e-09
2.52074e-08
-1.51841e-09
2.06716e-09
2.26979e-08
-1.12752e-09
2.894e-09
1.89781e-08
-6.32871e-10
3.97863e-09
1.38115e-08
-4.77067e-11
5.26111e-09
7.11559e-09
8.11929e-10
6.53124e-09
1.9337e-09
6.55993e-09
1.90913e-08
-7.47254e-10
-1.89634e-08
2.34053e-08
-1.20815e-09
-4.08653e-09
2.58914e-08
-1.64048e-09
-2.16811e-09
2.74064e-08
-2.06937e-09
-1.11643e-09
2.79689e-08
-2.34756e-09
-9.77662e-11
2.79557e-08
-2.47969e-09
5.27154e-10
2.75534e-08
-2.47801e-09
9.43439e-10
2.66782e-08
-2.33667e-09
1.42196e-09
2.51233e-08
-2.04285e-09
2.07831e-09
2.26206e-08
-1.59311e-09
2.96715e-09
1.88636e-08
-9.96347e-10
4.11935e-09
1.36463e-08
-2.69814e-10
5.43818e-09
6.97776e-09
8.08182e-10
6.67102e-09
2.30196e-09
6.60897e-09
1.89202e-08
-8.19652e-10
-1.88473e-08
2.3063e-08
-1.38506e-09
-3.96506e-09
2.54866e-08
-1.91107e-09
-2.15213e-09
2.69861e-08
-2.41069e-09
-1.15754e-09
2.75738e-08
-2.74192e-09
-1.92961e-10
2.76286e-08
-2.90835e-09
3.74009e-10
2.73116e-08
-2.93502e-09
7.73841e-10
2.652e-08
-2.81008e-09
1.26456e-09
2.5032e-08
-2.51351e-09
1.95799e-09
2.25591e-08
-2.03657e-09
2.91556e-09
1.87765e-08
-1.37694e-09
4.16226e-09
1.34965e-08
-5.50024e-10
5.55929e-09
6.82188e-09
6.80289e-10
6.80154e-09
2.44856e-09
6.67496e-09
1.87358e-08
-8.48517e-10
-1.87058e-08
2.27058e-08
-1.5217e-09
-3.8315e-09
2.50684e-08
-2.13613e-09
-2.13587e-09
2.65535e-08
-2.67908e-09
-1.21512e-09
2.71691e-08
-3.02791e-09
-3.28241e-10
2.72922e-08
-3.20405e-09
1.73605e-10
2.70667e-08
-3.24255e-09
5.33737e-10
2.63722e-08
-3.12807e-09
1.01288e-09
2.4974e-08
-2.83889e-09
1.7237e-09
2.25585e-08
-2.36284e-09
2.74174e-09
1.87789e-08
-1.68616e-09
4.08875e-09
1.34486e-08
-8.13728e-10
5.59374e-09
6.73892e-09
4.95721e-10
6.89429e-09
2.43998e-09
6.7477e-09
1.8531e-08
-8.72889e-10
-1.85049e-08
2.23472e-08
-1.652e-09
-3.68334e-09
2.46725e-08
-2.3265e-09
-2.13234e-09
2.61581e-08
-2.86583e-09
-1.29639e-09
2.67985e-08
-3.18895e-09
-4.77045e-10
2.69792e-08
-3.3383e-09
-4.43773e-11
2.68366e-08
-3.34976e-09
2.51739e-10
2.62355e-08
-3.22165e-09
6.96404e-10
2.49307e-08
-2.93769e-09
1.40511e-09
2.25877e-08
-2.48473e-09
2.46627e-09
1.88353e-08
-1.83848e-09
3.90625e-09
1.34765e-08
-9.86667e-10
5.53329e-09
6.72113e-09
3.23296e-10
6.92977e-09
2.35772e-09
6.80454e-09
1.8325e-08
-9.22794e-10
-1.8273e-08
2.20203e-08
-1.77762e-09
-3.56671e-09
2.43375e-08
-2.44778e-09
-2.19303e-09
2.58313e-08
-2.92627e-09
-1.43036e-09
2.648e-08
-3.17396e-09
-6.60643e-10
2.66888e-08
-3.25106e-09
-2.92804e-10
2.65967e-08
-3.19991e-09
-5.44556e-11
2.60624e-08
-3.0328e-09
3.48757e-10
2.4831e-08
-2.74948e-09
1.04677e-09
2.25526e-08
-2.33785e-09
2.13516e-09
1.88326e-08
-1.76662e-09
3.65204e-09
1.34598e-08
-1.00605e-09
5.39646e-09
6.67933e-09
2.09303e-10
6.89921e-09
2.21985e-09
6.81959e-09
1.81733e-08
-9.69428e-10
-1.81248e-08
2.17796e-08
-1.8098e-09
-3.57139e-09
2.40876e-08
-2.38147e-09
-2.37164e-09
2.55736e-08
-2.73621e-09
-1.67309e-09
2.62078e-08
-2.87355e-09
-9.31278e-10
2.64006e-08
-2.85772e-09
-5.82269e-10
2.63086e-08
-2.73818e-09
-3.65289e-10
2.57999e-08
-2.53512e-09
1.61553e-11
2.4609e-08
-2.26023e-09
7.07354e-10
2.23713e-08
-1.90869e-09
1.81486e-09
1.86713e-08
-1.44895e-09
3.38895e-09
1.32874e-08
-8.43028e-10
5.22806e-09
6.52287e-09
1.68497e-10
6.81299e-09
1.96516e-09
6.78108e-09
1.8138e-08
-8.90714e-10
-1.82155e-08
2.16603e-08
-1.56081e-09
-3.76981e-09
2.39175e-08
-1.94097e-09
-2.6961e-09
2.53631e-08
-2.13862e-09
-2.04118e-09
2.59533e-08
-2.18198e-09
-1.27902e-09
2.61006e-08
-2.11021e-09
-8.91112e-10
2.59685e-08
-1.96087e-09
-6.40277e-10
2.5442e-08
-1.7612e-09
-2.41347e-10
2.42613e-08
-1.52856e-09
4.56317e-10
2.20409e-08
-1.26259e-09
1.58246e-09
1.83458e-08
-9.39482e-10
3.19423e-09
1.29519e-08
-5.29472e-10
5.08937e-09
6.24845e-09
1.77275e-10
6.70403e-09
1.51982e-09
6.69779e-09
1.82148e-08
-5.06599e-10
-1.85989e-08
2.16278e-08
-8.62624e-10
-4.11163e-09
2.37887e-08
-1.01756e-09
-3.08464e-09
2.51734e-08
-1.09081e-09
-2.43227e-09
2.57082e-08
-1.10232e-09
-1.61351e-09
2.57993e-08
-1.05012e-09
-1.14892e-09
2.56148e-08
-9.46954e-10
-8.25658e-10
2.50551e-08
-8.13861e-10
-3.8225e-10
2.38703e-08
-6.72079e-10
3.35273e-10
2.16547e-08
-5.23429e-10
1.48433e-09
1.79589e-08
-3.54288e-10
3.11878e-09
1.25635e-08
-1.55789e-10
5.03019e-09
5.9504e-09
1.82879e-10
6.61617e-09
8.69019e-10
6.60467e-09
1.82858e-08
1.05576e-10
-1.88994e-08
2.15796e-08
1.65122e-10
-4.32429e-09
2.36481e-08
2.21296e-10
-3.31006e-09
2.4983e-08
2.29457e-10
-2.65743e-09
2.54699e-08
2.11637e-10
-1.80248e-09
2.55077e-08
1.96873e-10
-1.28522e-09
2.5274e-08
1.96653e-10
-9.08849e-10
2.46895e-08
2.06588e-10
-4.33149e-10
2.35098e-08
2.11553e-10
3.00311e-10
2.13153e-08
2.08745e-10
1.46748e-09
1.76444e-08
1.98658e-10
3.12341e-09
1.22804e-08
1.74825e-10
5.03889e-09
5.74621e-09
1.26995e-10
6.59581e-09
5.8517e-11
6.55885e-09
1.81972e-08
5.53221e-10
-1.86474e-08
2.14539e-08
1.05926e-09
-4.15551e-09
2.34943e-08
1.37874e-09
-3.20261e-09
2.47964e-08
1.53372e-09
-2.61096e-09
2.52655e-08
1.57439e-09
-1.83598e-09
2.52965e-08
1.54283e-09
-1.38014e-09
2.50684e-08
1.46079e-09
-1.03801e-09
2.45163e-08
1.33577e-09
-5.77859e-10
2.33827e-08
1.17807e-09
1.67408e-10
2.12536e-08
9.94947e-10
1.34393e-09
1.76678e-08
7.65488e-10
3.02039e-09
1.23777e-08
4.87514e-10
4.97894e-09
5.8346e-09
6.36063e-11
6.60824e-09
-6.9109e-10
6.58474e-09
1.8037e-08
7.857e-10
-1.82725e-08
2.1366e-08
1.58656e-09
-3.86177e-09
2.34847e-08
2.13841e-09
-2.88387e-09
2.48537e-08
2.48196e-09
-2.32281e-09
2.54181e-08
2.63876e-09
-1.63408e-09
2.55607e-08
2.65769e-09
-1.2624e-09
2.5441e-08
2.56967e-09
-9.93367e-10
2.49632e-08
2.39205e-09
-5.82163e-10
2.38566e-08
2.14545e-09
1.36004e-10
2.17377e-08
1.82824e-09
1.28272e-09
1.81634e-08
1.41533e-09
2.92178e-09
1.28524e-08
8.98295e-10
4.89796e-09
6.14257e-09
1.22525e-10
6.64891e-09
-1.19347e-09
6.64401e-09
1.80212e-08
9.05706e-10
-1.81438e-08
2.14521e-08
1.79285e-09
-3.64196e-09
2.36758e-08
2.45401e-09
-2.54429e-09
2.51492e-08
2.93555e-09
-1.93206e-09
2.58236e-08
3.20007e-09
-1.24075e-09
2.60749e-08
3.28565e-09
-8.84343e-10
2.60444e-08
3.23434e-09
-6.39105e-10
2.55889e-08
3.07436e-09
-2.31911e-10
2.44415e-08
2.81788e-09
4.69873e-10
2.22622e-08
2.4534e-09
1.54899e-09
1.86225e-08
1.94507e-09
3.10485e-09
1.32472e-08
1.26995e-09
4.99885e-09
6.38598e-09
2.29433e-10
6.74974e-09
-1.51038e-09
6.70099e-09
1.81524e-08
9.26028e-10
-1.81743e-08
2.17011e-08
1.77642e-09
-3.53535e-09
2.39877e-08
2.45637e-09
-2.29225e-09
2.55023e-08
3.00089e-09
-1.58323e-09
2.62013e-08
3.33116e-09
-8.33701e-10
2.6466e-08
3.47147e-09
-4.54272e-10
2.64235e-08
3.46955e-09
-1.96715e-10
2.59237e-08
3.34904e-09
2.20628e-10
2.47125e-08
3.1107e-09
9.13429e-10
2.2445e-08
2.73694e-09
1.97863e-09
1.87217e-08
2.18673e-09
3.47625e-09
1.33118e-08
1.42233e-09
5.25204e-09
6.44798e-09
2.18246e-10
6.86965e-09
-1.79158e-09
6.72702e-09
1.83408e-08
8.97181e-10
-1.83125e-08
2.2005e-08
1.67351e-09
-3.56244e-09
2.42977e-08
2.33321e-09
-2.17085e-09
2.5782e-08
2.89224e-09
-1.37707e-09
2.64269e-08
3.24931e-09
-5.64695e-10
2.66311e-08
3.42438e-09
-1.58968e-10
2.65273e-08
3.45687e-09
1.14231e-10
2.59618e-08
3.35464e-09
5.57117e-10
2.46731e-08
3.10837e-09
1.28752e-09
2.23137e-08
2.70479e-09
2.38768e-09
1.85187e-08
2.10944e-09
3.86802e-09
1.31158e-08
1.29116e-09
5.5296e-09
6.37605e-09
-2.25055e-12
6.95566e-09
-2.13936e-09
6.72201e-09
1.85393e-08
8.93568e-10
-1.85356e-08
2.23232e-08
1.59061e-09
-3.70082e-09
2.46059e-08
2.20447e-09
-2.15398e-09
2.60404e-08
2.75143e-09
-1.29361e-09
2.66232e-08
3.10729e-09
-4.40835e-10
2.67572e-08
3.2863e-09
3.78452e-12
2.65771e-08
3.32247e-09
3.13945e-10
2.59302e-08
3.20795e-09
7.92652e-10
2.4554e-08
2.92537e-09
1.55778e-09
2.2109e-08
2.46434e-09
2.68349e-09
1.82634e-08
1.80926e-09
4.14355e-09
1.2891e-08
9.53269e-10
5.70763e-09
6.30103e-09
-3.8427e-10
6.96913e-09
-2.53144e-09
6.69198e-09
1.87371e-08
8.99021e-10
-1.87422e-08
2.26697e-08
1.51424e-09
-3.85572e-09
2.49799e-08
2.05831e-09
-2.16337e-09
2.63981e-08
2.56208e-09
-1.22818e-09
2.69483e-08
2.88616e-09
-3.28324e-10
2.70219e-08
3.03945e-09
1.73947e-10
2.67559e-08
3.04857e-09
5.40428e-10
2.60136e-08
2.90264e-09
1.04799e-09
2.45424e-08
2.58091e-09
1.81582e-09
2.20261e-08
2.07601e-09
2.90445e-09
1.81572e-08
1.38848e-09
4.28919e-09
1.28307e-08
5.31974e-10
5.74694e-09
6.33549e-09
-7.9598e-10
6.90582e-09
-2.83068e-09
6.63429e-09
1.89315e-08
8.44166e-10
-1.88764e-08
2.30461e-08
1.36194e-09
-3.96178e-09
2.54267e-08
1.81591e-09
-2.13758e-09
2.68722e-08
2.24468e-09
-1.12741e-09
2.74071e-08
2.50599e-09
-1.53972e-10
2.74171e-08
2.61401e-09
4.16295e-10
2.70601e-08
2.58256e-09
8.23882e-10
2.62205e-08
2.40487e-09
1.33823e-09
2.46626e-08
2.06421e-09
2.07559e-09
2.20989e-08
1.55824e-09
3.08234e-09
1.82422e-08
9.00433e-10
4.3454e-09
1.29799e-08
1.08061e-10
5.68668e-09
6.50878e-09
-1.12004e-09
6.79546e-09
-2.88576e-09
6.56396e-09
1.91229e-08
6.93862e-10
-1.89725e-08
2.34311e-08
1.08425e-09
-4.03037e-09
2.58967e-08
1.43376e-09
-2.08313e-09
2.73808e-08
1.77198e-09
-1.01107e-09
2.78995e-08
1.95778e-09
2.99212e-11
2.7843e-08
2.00949e-09
6.61653e-10
2.73995e-08
1.94306e-09
1.0837e-09
2.64756e-08
1.75087e-09
1.57885e-09
2.48546e-08
1.42585e-09
2.26046e-09
2.22738e-08
9.71886e-10
3.16845e-09
1.84623e-08
4.09516e-10
4.30373e-09
1.32765e-08
-2.50255e-10
5.54529e-09
6.77481e-09
-1.26929e-09
6.65197e-09
-2.6095e-09
6.49897e-09
1.93102e-08
4.71264e-10
-1.90876e-08
2.37928e-08
7.22474e-10
-4.12096e-09
2.63233e-08
9.68611e-10
-2.06552e-09
2.78197e-08
1.20979e-09
-9.34217e-10
2.83102e-08
1.32534e-09
1.41932e-10
2.81963e-08
1.32997e-09
7.93606e-10
2.76801e-08
1.24389e-09
1.21568e-09
2.66918e-08
1.06402e-09
1.67577e-09
2.50342e-08
7.90963e-10
2.29346e-09
2.24612e-08
4.34883e-10
3.11122e-09
1.87054e-08
1.61982e-11
4.15049e-09
1.35796e-08
-4.61138e-10
5.33809e-09
7.01011e-09
-1.19302e-09
6.49458e-09
-2.05103e-09
6.45218e-09
1.94774e-08
2.57561e-10
-1.92639e-08
2.40924e-08
3.87004e-10
-4.27989e-09
2.66529e-08
5.40507e-10
-2.13279e-09
2.81371e-08
6.83116e-10
-9.57902e-10
2.85931e-08
7.4118e-10
1.27759e-10
2.8426e-08
7.24107e-10
7.72846e-10
2.78508e-08
6.4553e-10
1.17355e-09
2.68158e-08
5.06904e-10
1.59244e-09
2.51386e-08
3.14307e-10
2.15448e-09
2.25809e-08
8.13305e-11
2.91229e-09
1.8869e-08
-1.77753e-10
3.90709e-09
1.37659e-08
-4.62776e-10
5.10608e-09
7.11749e-09
-8.98665e-10
6.35544e-09
-1.36625e-09
6.43329e-09
1.96229e-08
3.5237e-11
-1.94008e-08
2.42764e-08
1.98761e-10
-4.46581e-09
2.68401e-08
2.45962e-10
-2.26982e-09
2.83093e-08
2.81317e-10
-1.06793e-09
2.87347e-08
3.0374e-10
1.15932e-11
2.85234e-08
2.9349e-10
6.41512e-10
2.79036e-08
2.46721e-10
1.0185e-09
2.68372e-08
1.70463e-10
1.40296e-09
2.51511e-08
7.21653e-11
1.92869e-09
2.26093e-08
-3.75394e-11
2.66146e-09
1.8925e-08
-1.53167e-10
3.66076e-09
1.38214e-08
-2.76195e-10
4.91823e-09
7.11967e-09
-4.68656e-10
6.27307e-09
-6.9497e-10
6.44892e-09
1.96124e-08
-1.95773e-08
2.44488e-08
-4.63786e-09
2.70552e-08
-2.36076e-09
2.84682e-08
-1.13191e-09
2.88432e-08
-7.14703e-11
2.86002e-08
5.36279e-10
2.79521e-08
8.94733e-10
2.6861e-08
1.26155e-09
2.51627e-08
1.77061e-09
2.2627e-08
2.49843e-09
1.89573e-08
3.51696e-09
1.38598e-08
4.82177e-09
7.15051e-09
6.24107e-09
6.45573e-09
7.10345e-09
-1.54547e-09
-2.2094e-08
1.09838e-08
-1.68668e-09
-3.29281e-09
1.26785e-08
-1.66712e-09
7.45334e-10
1.38427e-08
-1.53388e-09
1.97396e-09
1.43532e-08
-1.21206e-09
2.91815e-09
1.40799e-08
-7.85175e-10
3.53023e-09
1.29656e-08
-2.0176e-10
3.88181e-09
1.09384e-08
5.18285e-10
4.18883e-09
8.03777e-09
1.19173e-09
4.5886e-09
4.47399e-09
1.61804e-09
5.07176e-09
7.63476e-10
1.40866e-09
5.73787e-09
-1.89321e-09
-1.97209e-10
6.78359e-09
-2.20394e-09
-2.92985e-09
7.58299e-09
-4.8404e-09
6.36439e-09
6.51864e-09
-2.17645e-09
-2.50717e-08
1.05267e-08
-2.99392e-09
-6.91702e-09
1.26519e-08
-3.22754e-09
-2.46153e-09
1.45229e-08
-3.23041e-09
-6.72665e-10
1.61394e-08
-2.9803e-09
8.1461e-10
1.72762e-08
-2.51549e-09
1.95663e-09
1.79232e-08
-1.88993e-09
2.87587e-09
1.80771e-08
-1.12365e-09
3.77928e-09
1.75909e-08
-2.69716e-10
4.73574e-09
1.63068e-08
4.85468e-10
5.72329e-09
1.41153e-08
6.94275e-10
6.76386e-09
1.04846e-08
2.95982e-11
7.80751e-09
5.29949e-09
-1.81184e-09
9.18977e-09
-3.57131e-09
9.27332e-09
6.39336e-09
-2.71142e-09
-2.46699e-08
1.01533e-08
-3.90094e-09
-6.94892e-09
1.21175e-08
-4.24712e-09
-3.09314e-09
1.37912e-08
-4.24048e-09
-1.64028e-09
1.52577e-08
-3.98885e-09
-3.26838e-10
1.63899e-08
-3.56181e-09
7.35075e-10
1.71606e-08
-3.00319e-09
1.63896e-09
1.75665e-08
-2.3233e-09
2.57288e-09
1.75522e-08
-1.54965e-09
3.6244e-09
1.69511e-08
-7.67498e-10
4.80958e-09
1.53423e-08
-1.82915e-10
6.16247e-09
1.2228e-08
-8.15753e-11
7.72474e-09
6.90122e-09
-6.57102e-10
9.684e-09
-9.58509e-10
1.00438e-08
6.2433e-09
-3.01908e-09
-2.4674e-08
9.81551e-09
-4.41306e-09
-7.03836e-09
1.1679e-08
-4.78639e-09
-3.45688e-09
1.32722e-08
-4.70511e-09
-2.20012e-09
1.46417e-08
-4.38461e-09
-1.02952e-09
1.56759e-08
-3.94189e-09
-8.87479e-11
1.63614e-08
-3.41919e-09
7.24608e-10
1.66898e-08
-2.79738e-09
1.61297e-09
1.65773e-08
-2.07653e-09
2.69596e-09
1.5831e-08
-1.30131e-09
4.06554e-09
1.41307e-08
-5.9434e-10
5.79928e-09
1.10461e-08
-1.37831e-10
7.89081e-09
5.98573e-09
8.8692e-11
1.02501e-08
6.38214e-10
1.04877e-08
6.06914e-09
-3.14481e-09
-2.45492e-08
9.44474e-09
-4.63291e-09
-6.99671e-09
1.12034e-08
-4.94807e-09
-3.73439e-09
1.27278e-08
-4.74011e-09
-2.66312e-09
1.40292e-08
-4.31434e-09
-1.61613e-09
1.49702e-08
-3.82805e-09
-7.61187e-10
1.55639e-08
-3.30473e-09
-3.51684e-11
1.58317e-08
-2.72752e-09
7.86028e-10
1.56904e-08
-2.072e-09
1.87422e-09
1.49148e-08
-1.36429e-09
3.40467e-09
1.3148e-08
-6.83828e-10
5.50702e-09
1.00122e-08
-1.42327e-10
8.07127e-09
5.23891e-09
4.21853e-10
1.06678e-08
1.44742e-09
1.07218e-08
5.89403e-09
-3.12464e-09
-2.43626e-08
9.07763e-09
-4.59673e-09
-6.95794e-09
1.07309e-08
-4.78417e-09
-4.00673e-09
1.21908e-08
-4.43915e-09
-3.05552e-09
1.34387e-08
-3.91691e-09
-2.07116e-09
1.43161e-08
-3.38999e-09
-1.26585e-09
1.48495e-08
-2.86716e-09
-5.92759e-10
1.50878e-08
-2.32592e-09
1.72346e-10
1.49582e-08
-1.74852e-09
1.25162e-09
1.42076e-08
-1.15343e-09
2.88898e-09
1.24382e-08
-5.9957e-10
5.25844e-09
9.29992e-09
-1.34308e-10
8.14388e-09
4.72844e-09
5.10604e-10
1.08643e-08
1.76835e-09
1.0783e-08
5.74495e-09
-2.96599e-09
-2.4283e-08
8.75303e-09
-4.29354e-09
-7.08802e-09
1.02968e-08
-4.34424e-09
-4.31213e-09
1.16885e-08
-3.88673e-09
-3.41202e-09
1.28901e-08
-3.3043e-09
-2.44195e-09
1.37212e-08
-2.75977e-09
-1.65246e-09
1.42118e-08
-2.25393e-09
-9.92205e-10
1.4436e-08
-1.76346e-09
-2.48551e-10
1.43324e-08
-1.2763e-09
8.19683e-10
1.36207e-08
-8.14166e-10
2.52116e-09
1.18655e-08
-4.2642e-10
5.05597e-09
8.734e-09
-1.07095e-10
8.12981e-09
4.31441e-09
4.70635e-10
1.08996e-08
1.75481e-09
1.07194e-08
5.64402e-09
-2.68058e-09
-2.43448e-08
8.49191e-09
-3.72785e-09
-7.31328e-09
9.91406e-09
-3.64487e-09
-4.64648e-09
1.12246e-08
-3.12833e-09
-3.74621e-09
1.23733e-08
-2.5428e-09
-2.74756e-09
1.31705e-08
-2.02364e-09
-1.94477e-09
1.36376e-08
-1.56412e-09
-1.27802e-09
1.38541e-08
-1.14087e-09
-5.3904e-10
1.37757e-08
-7.53204e-10
5.22592e-10
1.31021e-08
-4.30073e-10
2.26587e-09
1.13651e-08
-2.11664e-10
4.8991e-09
8.24298e-09
-5.69526e-11
8.07777e-09
3.94517e-09
3.65503e-10
1.08492e-08
1.48236e-09
1.05808e-08
5.55364e-09
-2.25764e-09
-2.44465e-08
8.26715e-09
-2.91883e-09
-7.53169e-09
9.58248e-09
-2.71059e-09
-4.96705e-09
1.08226e-08
-2.20138e-09
-4.0415e-09
1.19232e-08
-1.67759e-09
-2.98631e-09