/*--------------------------------*- C++ -*----------------------------------*\
| =========                 |                                                 |
| \\      /  F ield         | OpenFOAM: The Open Source CFD Toolbox           |
|  \\    /   O peration     | Version:  5.0                                   |
|   \\  /    A nd           | Web:      www.OpenFOAM.org                      |
|    \\/     M anipulation  |                                                 |
\*---------------------------------------------------------------------------*/
FoamFile
{
    version     2.0;
    format      ascii;
    class       volVectorField;
    location    "362";
    object      U;
}
// * * * * * * * * * * * * * * * * * * * * * * * * * * * * * * * * * * * * * //

dimensions      [0 1 -1 0 0 0 0];

internalField   nonuniform List<vector> 
1568
(
(4.52468e-16 -1.64232e-15 0)
(5.17277e-15 -3.72281e-15 0)
(1.4059e-14 -5.72754e-15 0)
(2.64935e-14 -6.99559e-15 0)
(4.09659e-14 -7.9885e-15 0)
(5.75491e-14 -9.06974e-15 0)
(7.5892e-14 -9.78415e-15 0)
(9.54212e-14 -1.03425e-14 0)
(1.15935e-13 -1.07888e-14 0)
(1.37155e-13 -1.10639e-14 0)
(1.58764e-13 -1.12031e-14 0)
(1.80516e-13 -1.12193e-14 0)
(2.02186e-13 -1.11166e-14 0)
(2.23549e-13 -1.09039e-14 0)
(2.44398e-13 -1.05925e-14 0)
(2.64546e-13 -1.01843e-14 0)
(2.83817e-13 -9.68937e-15 0)
(3.02048e-13 -9.11589e-15 0)
(3.19094e-13 -8.47016e-15 0)
(3.34822e-13 -7.75861e-15 0)
(3.49112e-13 -6.98858e-15 0)
(3.61865e-13 -6.16641e-15 0)
(3.72996e-13 -5.28003e-15 0)
(3.82341e-13 -4.19266e-15 0)
(3.89912e-13 -3.03242e-15 0)
(3.95729e-13 -1.99382e-15 0)
(3.99737e-13 -1.00614e-15 0)
(4.0173e-13 -2.70321e-16 0)
(4.01743e-13 2.6108e-16 0)
(3.9978e-13 9.90935e-16 0)
(3.95803e-13 1.97788e-15 0)
(3.90013e-13 3.01357e-15 0)
(3.82465e-13 4.17678e-15 0)
(3.73145e-13 5.26688e-15 0)
(3.6204e-13 6.15542e-15 0)
(3.49313e-13 6.97558e-15 0)
(3.35045e-13 7.74913e-15 0)
(3.19337e-13 8.45872e-15 0)
(3.02312e-13 9.10804e-15 0)
(2.84096e-13 9.68241e-15 0)
(2.64838e-13 1.01783e-14 0)
(2.44705e-13 1.05843e-14 0)
(2.23868e-13 1.08996e-14 0)
(2.02514e-13 1.11126e-14 0)
(1.80851e-13 1.12166e-14 0)
(1.59098e-13 1.11999e-14 0)
(1.37495e-13 1.10581e-14 0)
(1.16297e-13 1.07795e-14 0)
(9.57734e-14 1.03577e-14 0)
(7.62186e-14 9.76864e-15 0)
(5.79675e-14 9.01047e-15 0)
(4.13668e-14 8.07938e-15 0)
(2.6795e-14 6.90901e-15 0)
(1.45847e-14 5.5481e-15 0)
(5.75725e-15 3.71334e-15 0)
(7.57051e-16 1.5417e-15 0)
(1.35152e-16 -4.47165e-15 0)
(5.34374e-15 -1.02453e-14 0)
(1.30416e-14 -1.56565e-14 0)
(2.38555e-14 -1.96842e-14 0)
(3.74906e-14 -2.31422e-14 0)
(5.28744e-14 -2.58352e-14 0)
(6.97557e-14 -2.79953e-14 0)
(8.79704e-14 -2.96749e-14 0)
(1.07084e-13 -3.08953e-14 0)
(1.26808e-13 -3.16952e-14 0)
(1.46917e-13 -3.2098e-14 0)
(1.67186e-13 -3.21451e-14 0)
(1.87362e-13 -3.18554e-14 0)
(2.07242e-13 -3.12462e-14 0)
(2.26652e-13 -3.0343e-14 0)
(2.45403e-13 -2.91747e-14 0)
(2.63334e-13 -2.77545e-14 0)
(2.80298e-13 -2.61073e-14 0)
(2.96158e-13 -2.4251e-14 0)
(3.10786e-13 -2.22111e-14 0)
(3.24073e-13 -2.0002e-14 0)
(3.35915e-13 -1.76496e-14 0)
(3.4623e-13 -1.51759e-14 0)
(3.5495e-13 -1.26151e-14 0)
(3.62052e-13 -1.00842e-14 0)
(3.67473e-13 -7.47486e-15 0)
(3.71163e-13 -4.62988e-15 0)
(3.73013e-13 -1.57388e-15 0)
(3.73028e-13 1.53375e-15 0)
(3.71204e-13 4.59372e-15 0)
(3.67536e-13 7.4419e-15 0)
(3.62135e-13 1.00515e-14 0)
(3.55058e-13 1.25787e-14 0)
(3.46366e-13 1.51397e-14 0)
(3.36074e-13 1.76148e-14 0)
(3.2425e-13 1.99693e-14 0)
(3.10984e-13 2.21826e-14 0)
(2.96376e-13 2.42235e-14 0)
(2.8053e-13 2.60827e-14 0)
(2.63583e-13 2.77327e-14 0)
(2.45666e-13 2.91562e-14 0)
(2.26921e-13 3.0328e-14 0)
(2.07518e-13 3.1235e-14 0)
(1.8764e-13 3.18434e-14 0)
(1.67468e-13 3.21397e-14 0)
(1.47214e-13 3.20965e-14 0)
(1.27096e-13 3.16907e-14 0)
(1.07354e-13 3.08889e-14 0)
(8.82459e-14 2.96675e-14 0)
(7.00622e-14 2.7996e-14 0)
(5.30936e-14 2.58175e-14 0)
(3.76683e-14 2.3061e-14 0)
(2.41661e-14 1.97402e-14 0)
(1.30561e-14 1.562e-14 0)
(5.20452e-15 1.05145e-14 0)
(2.18899e-16 4.398e-15 0)
(-3.78578e-18 -6.8604e-15 0)
(4.22001e-15 -1.64498e-14 0)
(1.11883e-14 -2.49394e-14 0)
(2.14449e-14 -3.16287e-14 0)
(3.35826e-14 -3.70728e-14 0)
(4.77869e-14 -4.15698e-14 0)
(6.3486e-14 -4.50625e-14 0)
(8.0282e-14 -4.77769e-14 0)
(9.79564e-14 -4.97549e-14 0)
(1.16261e-13 -5.10409e-14 0)
(1.34902e-13 -5.16936e-14 0)
(1.5366e-13 -5.17621e-14 0)
(1.72354e-13 -5.12863e-14 0)
(1.90784e-13 -5.03001e-14 0)
(2.08757e-13 -4.88493e-14 0)
(2.26123e-13 -4.69611e-14 0)
(2.42731e-13 -4.46736e-14 0)
(2.58437e-13 -4.20194e-14 0)
(2.73117e-13 -3.90322e-14 0)
(2.86657e-13 -3.5742e-14 0)
(2.98957e-13 -3.21837e-14 0)
(3.09923e-13 -2.83869e-14 0)
(3.19477e-13 -2.43864e-14 0)
(3.27566e-13 -2.02269e-14 0)
(3.3412e-13 -1.59651e-14 0)
(3.39059e-13 -1.15814e-14 0)
(3.42363e-13 -7.03587e-15 0)
(3.4403e-13 -2.37489e-15 0)
(3.44039e-13 2.31904e-15 0)
(3.42393e-13 6.98048e-15 0)
(3.39112e-13 1.15314e-14 0)
(3.34198e-13 1.59164e-14 0)
(3.27662e-13 2.01836e-14 0)
(3.19591e-13 2.43429e-14 0)
(3.10057e-13 2.83485e-14 0)
(2.99112e-13 3.2144e-14 0)
(2.86829e-13 3.57088e-14 0)
(2.73302e-13 3.89984e-14 0)
(2.58639e-13 4.19896e-14 0)
(2.42943e-13 4.46458e-14 0)
(2.26344e-13 4.69363e-14 0)
(2.08989e-13 4.88258e-14 0)
(1.9102e-13 5.02836e-14 0)
(1.72598e-13 5.12702e-14 0)
(1.53909e-13 5.17522e-14 0)
(1.3514e-13 5.16872e-14 0)
(1.16498e-13 5.10329e-14 0)
(9.82087e-14 4.97468e-14 0)
(8.05219e-14 4.77802e-14 0)
(6.36857e-14 4.50525e-14 0)
(4.79832e-14 4.15217e-14 0)
(3.38252e-14 3.71018e-14 0)
(2.14764e-14 3.16024e-14 0)
(1.12739e-14 2.49046e-14 0)
(4.30756e-15 1.66672e-14 0)
(7.29923e-17 6.75745e-15 0)
(-3.1016e-17 -8.61151e-15 0)
(3.77609e-15 -2.19734e-14 0)
(9.85726e-15 -3.29888e-14 0)
(1.88571e-14 -4.23289e-14 0)
(3.01018e-14 -4.97872e-14 0)
(4.29981e-14 -5.58234e-14 0)
(5.73051e-14 -6.0647e-14 0)
(7.27141e-14 -6.43552e-14 0)
(8.89677e-14 -6.70237e-14 0)
(1.05769e-13 -6.87637e-14 0)
(1.22899e-13 -6.96617e-14 0)
(1.40173e-13 -6.97518e-14 0)
(1.57374e-13 -6.9102e-14 0)
(1.74316e-13 -6.77758e-14 0)
(1.90855e-13 -6.58143e-14 0)
(2.06833e-13 -6.32639e-14 0)
(2.22104e-13 -6.01795e-14 0)
(2.36548e-13 -5.65994e-14 0)
(2.5005e-13 -5.25723e-14 0)
(2.62502e-13 -4.81382e-14 0)
(2.73809e-13 -4.33451e-14 0)
(2.83891e-13 -3.82335e-14 0)
(2.92676e-13 -3.28522e-14 0)
(3.00103e-13 -2.72434e-14 0)
(3.06102e-13 -2.14665e-14 0)
(3.10609e-13 -1.5518e-14 0)
(3.13606e-13 -9.40318e-15 0)
(3.15109e-13 -3.16758e-15 0)
(3.15118e-13 3.09769e-15 0)
(3.13635e-13 9.33607e-15 0)
(3.10653e-13 1.54531e-14 0)
(3.06162e-13 2.14048e-14 0)
(3.00181e-13 2.71832e-14 0)
(2.92772e-13 3.27956e-14 0)
(2.84001e-13 3.81797e-14 0)
(2.73931e-13 4.32965e-14 0)
(2.62638e-13 4.80895e-14 0)
(2.50199e-13 5.25305e-14 0)
(2.36707e-13 5.65606e-14 0)
(2.22274e-13 6.01445e-14 0)
(2.07012e-13 6.32345e-14 0)
(1.91041e-13 6.57903e-14 0)
(1.74506e-13 6.77543e-14 0)
(1.57563e-13 6.90926e-14 0)
(1.40368e-13 6.97415e-14 0)
(1.231e-13 6.96546e-14 0)
(1.05958e-13 6.87723e-14 0)
(8.91536e-14 6.70281e-14 0)
(7.28922e-14 6.4346e-14 0)
(5.7464e-14 6.06614e-14 0)
(4.31599e-14 5.58476e-14 0)
(3.01858e-14 4.9776e-14 0)
(1.89565e-14 4.22889e-14 0)
(9.92469e-15 3.31606e-14 0)
(3.71464e-15 2.19492e-14 0)
(6.03318e-17 8.6592e-15 0)
(9.19309e-17 -1.02866e-14 0)
(3.15718e-15 -2.6452e-14 0)
(8.66068e-15 -4.04485e-14 0)
(1.67315e-14 -5.1801e-14 0)
(2.67422e-14 -6.12094e-14 0)
(3.83599e-14 -6.88152e-14 0)
(5.13118e-14 -7.48489e-14 0)
(6.52952e-14 -7.94658e-14 0)
(8.00627e-14 -8.28119e-14 0)
(9.53545e-14 -8.50009e-14 0)
(1.10963e-13 -8.61086e-14 0)
(1.26699e-13 -8.62263e-14 0)
(1.42371e-13 -8.54338e-14 0)
(1.57824e-13 -8.37897e-14 0)
(1.72905e-13 -8.13556e-14 0)
(1.87468e-13 -7.82044e-14 0)
(2.01393e-13 -7.43838e-14 0)
(2.14562e-13 -6.99546e-14 0)
(2.26865e-13 -6.497e-14 0)
(2.38212e-13 -5.94901e-14 0)
(2.48516e-13 -5.35618e-14 0)
(2.577e-13 -4.72448e-14 0)
(2.65698e-13 -4.05896e-14 0)
(2.7245e-13 -3.36557e-14 0)
(2.779e-13 -2.64861e-14 0)
(2.81999e-13 -1.91175e-14 0)
(2.84731e-13 -1.15669e-14 0)
(2.86101e-13 -3.89613e-15 0)
(2.86107e-13 3.81796e-15 0)
(2.84749e-13 1.14888e-14 0)
(2.82032e-13 1.90396e-14 0)
(2.77947e-13 2.64118e-14 0)
(2.72509e-13 3.3583e-14 0)
(2.65767e-13 4.05204e-14 0)
(2.57781e-13 4.71769e-14 0)
(2.48608e-13 5.34993e-14 0)
(2.38314e-13 5.94329e-14 0)
(2.26977e-13 6.49176e-14 0)
(2.14681e-13 6.99079e-14 0)
(2.01519e-13 7.43439e-14 0)
(1.876e-13 7.81705e-14 0)
(1.73041e-13 8.1329e-14 0)
(1.57968e-13 8.37697e-14 0)
(1.42517e-13 8.54207e-14 0)
(1.2684e-13 8.62248e-14 0)
(1.1111e-13 8.61111e-14 0)
(9.54933e-14 8.50067e-14 0)
(8.01886e-14 8.28278e-14 0)
(6.54376e-14 7.94886e-14 0)
(5.14381e-14 7.4871e-14 0)
(3.84231e-14 6.88396e-14 0)
(2.68069e-14 6.12577e-14 0)
(1.6823e-14 5.18963e-14 0)
(8.63396e-15 4.04517e-14 0)
(3.18787e-15 2.66082e-14 0)
(3.49428e-17 1.03027e-14 0)
(4.83013e-18 -1.17411e-14 0)
(2.77781e-15 -3.05597e-14 0)
(7.54887e-15 -4.68431e-14 0)
(1.4693e-14 -6.03434e-14 0)
(2.35451e-14 -7.14723e-14 0)
(3.39117e-14 -8.04865e-14 0)
(4.54886e-14 -8.76537e-14 0)
(5.80196e-14 -9.31409e-14 0)
(7.12739e-14 -9.7114e-14 0)
(8.50206e-14 -9.97137e-14 0)
(9.90692e-14 -1.01038e-13 0)
(1.13241e-13 -1.01192e-13 0)
(1.27366e-13 -1.00262e-13 0)
(1.41294e-13 -9.83306e-14 0)
(1.54885e-13 -9.5479e-14 0)
(1.68014e-13 -9.17746e-14 0)
(1.80566e-13 -8.72868e-14 0)
(1.92435e-13 -8.2086e-14 0)
(2.03525e-13 -7.62357e-14 0)
(2.1375e-13 -6.9798e-14 0)
(2.23034e-13 -6.28392e-14 0)
(2.31305e-13 -5.54214e-14 0)
(2.38504e-13 -4.7606e-14 0)
(2.4458e-13 -3.9454e-14 0)
(2.49481e-13 -3.10221e-14 0)
(2.53171e-13 -2.23587e-14 0)
(2.55636e-13 -1.3512e-14 0)
(2.56871e-13 -4.54667e-15 0)
(2.56875e-13 4.45863e-15 0)
(2.55649e-13 1.34265e-14 0)
(2.53193e-13 2.22765e-14 0)
(2.4951e-13 3.09417e-14 0)
(2.44619e-13 3.93761e-14 0)
(2.38552e-13 4.75322e-14 0)
(2.3136e-13 5.53524e-14 0)
(2.23096e-13 6.27746e-14 0)
(2.13818e-13 6.97393e-14 0)
(2.03598e-13 7.61811e-14 0)
(1.92514e-13 8.20374e-14 0)
(1.80651e-13 8.72451e-14 0)
(1.68103e-13 9.17391e-14 0)
(1.54977e-13 9.54518e-14 0)
(1.41387e-13 9.83126e-14 0)
(1.27461e-13 1.00249e-13 0)
(1.13338e-13 1.01187e-13 0)
(9.9165e-14 1.01044e-13 0)
(8.51119e-14 9.97261e-14 0)
(7.13667e-14 9.71395e-14 0)
(5.80963e-14 9.31697e-14 0)
(4.55442e-14 8.76818e-14 0)
(3.39977e-14 8.05359e-14 0)
(2.36002e-14 7.15285e-14 0)
(1.46517e-14 6.04121e-14 0)
(7.5924e-15 4.69312e-14 0)
(2.81992e-15 3.06984e-14 0)
(2.83677e-17 1.17331e-14 0)
(3.43515e-18 -1.29439e-14 0)
(2.41953e-15 -3.4153e-14 0)
(6.54729e-15 -5.24734e-14 0)
(1.27552e-14 -6.7831e-14 0)
(2.05207e-14 -8.05004e-14 0)
(2.96085e-14 -9.08104e-14 0)
(3.98013e-14 -9.90123e-14 0)
(5.0875e-14 -1.05301e-13 0)
(6.25968e-14 -1.09862e-13 0)
(7.47722e-14 -1.12846e-13 0)
(8.72341e-14 -1.14371e-13 0)
(9.98125e-14 -1.1456e-13 0)
(1.12354e-13 -1.13518e-13 0)
(1.24723e-13 -1.11338e-13 0)
(1.36799e-13 -1.08108e-13 0)
(1.48466e-13 -1.03911e-13 0)
(1.59619e-13 -9.88282e-14 0)
(1.70164e-13 -9.29352e-14 0)
(1.80018e-13 -8.63069e-14 0)
(1.89102e-13 -7.90148e-14 0)
(1.97346e-13 -7.11324e-14 0)
(2.04691e-13 -6.27289e-14 0)
(2.11083e-13 -5.38734e-14 0)
(2.16473e-13 -4.46339e-14 0)
(2.20821e-13 -3.5078e-14 0)
(2.24099e-13 -2.52639e-14 0)
(2.26289e-13 -1.52571e-14 0)
(2.27386e-13 -5.12958e-15 0)
(2.27389e-13 5.03942e-15 0)
(2.26297e-13 1.51678e-14 0)
(2.24112e-13 2.51762e-14 0)
(2.20839e-13 3.49933e-14 0)
(2.16495e-13 4.4553e-14 0)
(2.11109e-13 5.37952e-14 0)
(2.04722e-13 6.26552e-14 0)
(1.9738e-13 7.10631e-14 0)
(1.89138e-13 7.89508e-14 0)
(1.80058e-13 8.62497e-14 0)
(1.70207e-13 9.28856e-14 0)
(1.59664e-13 9.87862e-14 0)
(1.48514e-13 1.03877e-13 0)
(1.36849e-13 1.08082e-13 0)
(1.24776e-13 1.11321e-13 0)
(1.12406e-13 1.13512e-13 0)
(9.98642e-14 1.14564e-13 0)
(8.72894e-14 1.14382e-13 0)
(7.48246e-14 1.12866e-13 0)
(6.26354e-14 1.09895e-13 0)
(5.09199e-14 1.05341e-13 0)
(3.98529e-14 9.90658e-14 0)
(2.96108e-14 9.08749e-14 0)
(2.0523e-14 8.05642e-14 0)
(1.28066e-14 6.79145e-14 0)
(6.52953e-15 5.25883e-14 0)
(2.37654e-15 3.42262e-14 0)
(2.81598e-17 1.29786e-14 0)
(2.40376e-17 -1.40071e-14 0)
(2.05491e-15 -3.71899e-14 0)
(5.59308e-15 -5.73524e-14 0)
(1.09119e-14 -7.42958e-14 0)
(1.75897e-14 -8.83512e-14 0)
(2.54339e-14 -9.98155e-14 0)
(3.42545e-14 -1.08938e-13 0)
(4.38481e-14 -1.15951e-13 0)
(5.4022e-14 -1.21045e-13 0)
(6.46123e-14 -1.24375e-13 0)
(7.54617e-14 -1.2609e-13 0)
(8.64146e-14 -1.26322e-13 0)
(9.73428e-14 -1.25186e-13 0)
(1.08129e-13 -1.22788e-13 0)
(1.1866e-13 -1.19227e-13 0)
(1.28834e-13 -1.14599e-13 0)
(1.38562e-13 -1.08991e-13 0)
(1.4776e-13 -1.02488e-13 0)
(1.56354e-13 -9.51724e-14 0)
(1.64275e-13 -8.71275e-14 0)
(1.71463e-13 -7.84296e-14 0)
(1.77866e-13 -6.91562e-14 0)
(1.83436e-13 -5.93857e-14 0)
(1.88133e-13 -4.91915e-14 0)
(1.91922e-13 -3.86467e-14 0)
(1.94781e-13 -2.78239e-14 0)
(1.96692e-13 -1.67964e-14 0)
(1.9765e-13 -5.64224e-15 0)
(1.9765e-13 5.55446e-15 0)
(1.96694e-13 1.67083e-14 0)
(1.94785e-13 2.77368e-14 0)
(1.91928e-13 3.85611e-14 0)
(1.88138e-13 4.91083e-14 0)
(1.83443e-13 5.93058e-14 0)
(1.77874e-13 6.90807e-14 0)
(1.71472e-13 7.83589e-14 0)
(1.64285e-13 8.70627e-14 0)
(1.56365e-13 9.51153e-14 0)
(1.47772e-13 1.02437e-13 0)
(1.38575e-13 1.08949e-13 0)
(1.28848e-13 1.14566e-13 0)
(1.18674e-13 1.19204e-13 0)
(1.08145e-13 1.22774e-13 0)
(9.73603e-14 1.25182e-13 0)
(8.643e-14 1.26329e-13 0)
(7.5475e-14 1.26108e-13 0)
(6.46287e-14 1.24401e-13 0)
(5.40416e-14 1.21081e-13 0)
(4.38562e-14 1.16004e-13 0)
(3.42521e-14 1.08997e-13 0)
(2.54565e-14 9.98807e-14 0)
(1.76011e-14 8.84423e-14 0)
(1.08729e-14 7.43845e-14 0)
(5.5962e-15 5.74403e-14 0)
(2.07202e-15 3.72923e-14 0)
(1.55495e-17 1.40388e-14 0)
(1.02755e-17 -1.4916e-14 0)
(1.71544e-15 -3.97775e-14 0)
(4.67533e-15 -6.14925e-14 0)
(9.13808e-15 -7.98093e-14 0)
(1.4755e-14 -9.50505e-14 0)
(2.1367e-14 -1.07511e-13 0)
(2.88144e-14 -1.17451e-13 0)
(3.69282e-14 -1.25102e-13 0)
(4.55528e-14 -1.3066e-13 0)
(5.45378e-14 -1.34301e-13 0)
(6.37463e-14 -1.36191e-13 0)
(7.30549e-14 -1.36465e-13 0)
(8.23481e-14 -1.3525e-13 0)
(9.15213e-14 -1.32667e-13 0)
(1.0048e-13 -1.28825e-13 0)
(1.09137e-13 -1.23825e-13 0)
(1.17415e-13 -1.17763e-13 0)
(1.25242e-13 -1.10734e-13 0)
(1.32554e-13 -1.02827e-13 0)
(1.39293e-13 -9.41296e-14 0)
(1.45409e-13 -8.47273e-14 0)
(1.50855e-13 -7.47039e-14 0)
(1.55591e-13 -6.41417e-14 0)
(1.59586e-13 -5.31221e-14 0)
(1.62809e-13 -4.17257e-14 0)
(1.65241e-13 -3.00328e-14 0)
(1.66868e-13 -1.81246e-14 0)
(1.67682e-13 -6.08509e-15 0)
(1.67681e-13 5.99861e-15 0)
(1.66865e-13 1.80399e-14 0)
(1.65236e-13 2.99501e-14 0)
(1.62803e-13 4.1645e-14 0)
(1.59578e-13 5.30443e-14 0)
(1.55582e-13 6.40675e-14 0)
(1.50844e-13 7.46337e-14 0)
(1.45397e-13 8.46623e-14 0)
(1.3928e-13 9.40708e-14 0)
(1.32539e-13 1.02774e-13 0)
(1.25226e-13 1.10688e-13 0)
(1.17399e-13 1.17724e-13 0)
(1.09121e-13 1.23794e-13 0)
(1.00464e-13 1.28803e-13 0)
(9.15054e-14 1.32655e-13 0)
(8.23322e-14 1.35247e-13 0)
(7.30401e-14 1.36471e-13 0)
(6.37337e-14 1.36209e-13 0)
(5.45236e-14 1.3433e-13 0)
(4.55371e-14 1.30697e-13 0)
(3.69196e-14 1.2515e-13 0)
(2.88093e-14 1.17515e-13 0)
(2.13425e-14 1.07585e-13 0)
(1.47344e-14 9.51216e-14 0)
(9.15636e-15 7.98952e-14 0)
(4.66393e-15 6.1589e-14 0)
(1.69356e-15 3.98518e-14 0)
(1.7378e-17 1.49381e-14 0)
(6.49908e-18 -1.56552e-14 0)
(1.39005e-15 -4.19093e-14 0)
(3.78925e-15 -6.49048e-14 0)
(7.41977e-15 -8.43632e-14 0)
(1.1993e-14 -1.00604e-13 0)
(1.73818e-14 -1.13905e-13 0)
(2.34645e-14 -1.24535e-13 0)
(3.01056e-14 -1.32723e-13 0)
(3.71716e-14 -1.38678e-13 0)
(4.45372e-14 -1.42593e-13 0)
(5.2094e-14 -1.44634e-13 0)
(5.97377e-14 -1.44944e-13 0)
(6.73719e-14 -1.43669e-13 0)
(7.49096e-14 -1.40936e-13 0)
(8.22735e-14 -1.36859e-13 0)
(8.93907e-14 -1.31548e-13 0)
(9.6196e-14 -1.25107e-13 0)
(1.02631e-13 -1.17638e-13 0)
(1.08642e-13 -1.09235e-13 0)
(1.14183e-13 -9.99916e-14 0)
(1.19209e-13 -8.99987e-14 0)
(1.23686e-13 -7.93466e-14 0)
(1.27579e-13 -6.81214e-14 0)
(1.30861e-13 -5.64118e-14 0)
(1.33509e-13 -4.43037e-14 0)
(1.35508e-13 -3.18829e-14 0)
(1.36845e-13 -1.92363e-14 0)
(1.37514e-13 -6.45364e-15 0)
(1.37513e-13 6.37476e-15 0)
(1.3684e-13 1.91579e-14 0)
(1.35498e-13 3.18052e-14 0)
(1.33494e-13 4.42285e-14 0)
(1.30841e-13 5.63393e-14 0)
(1.27555e-13 6.80523e-14 0)
(1.23659e-13 7.92812e-14 0)
(1.19179e-13 8.99381e-14 0)
(1.14149e-13 9.99359e-14 0)
(1.08606e-13 1.09186e-13 0)
(1.02592e-13 1.17595e-13 0)
(9.61555e-14 1.25072e-13 0)
(8.9349e-14 1.31521e-13 0)
(8.22309e-14 1.3684e-13 0)
(7.48671e-14 1.40926e-13 0)
(6.73299e-14 1.43669e-13 0)
(5.96974e-14 1.44954e-13 0)
(5.20549e-14 1.44651e-13 0)
(4.44985e-14 1.42622e-13 0)
(3.71396e-14 1.3872e-13 0)
(3.00767e-14 1.32773e-13 0)
(2.34324e-14 1.24592e-13 0)
(1.73651e-14 1.13974e-13 0)
(1.19816e-14 1.0069e-13 0)
(7.38836e-15 8.44442e-14 0)
(3.78312e-15 6.49752e-14 0)
(1.39627e-15 4.19904e-14 0)
(9.83223e-18 1.56737e-14 0)
(6.55226e-18 -1.6242e-14 0)
(1.07522e-15 -4.36049e-14 0)
(2.9314e-15 -6.76173e-14 0)
(5.73907e-15 -8.79928e-14 0)
(9.28319e-15 -1.05032e-13 0)
(1.34682e-14 -1.19011e-13 0)
(1.8195e-14 -1.30194e-13 0)
(2.33642e-14 -1.38819e-13 0)
(2.88649e-14 -1.45102e-13 0)
(3.4601e-14 -1.49238e-13 0)
(4.04972e-14 -1.51406e-13 0)
(4.64595e-14 -1.51753e-13 0)
(5.24157e-14 -1.50428e-13 0)
(5.82996e-14 -1.47577e-13 0)
(6.40507e-14 -1.43312e-13 0)
(6.96085e-14 -1.37752e-13 0)
(7.49228e-14 -1.31007e-13 0)
(7.99478e-14 -1.23184e-13 0)
(8.46418e-14 -1.14381e-13 0)
(8.89682e-14 -1.04699e-13 0)
(9.28932e-14 -9.42319e-14 0)
(9.63876e-14 -8.30739e-14 0)
(9.94263e-14 -7.13173e-14 0)
(1.01988e-13 -5.90537e-14 0)
(1.04056e-13 -4.63732e-14 0)
(1.05616e-13 -3.33679e-14 0)
(1.0666e-13 -2.01286e-14 0)
(1.07181e-13 -6.74876e-15 0)
(1.07178e-13 6.67875e-15 0)
(1.06649e-13 2.00589e-14 0)
(1.05599e-13 3.32989e-14 0)
(1.04033e-13 4.63056e-14 0)
(1.01959e-13 5.89878e-14 0)
(9.93912e-14 7.12544e-14 0)
(9.63466e-14 8.30146e-14 0)
(9.28469e-14 9.41773e-14 0)
(8.89175e-14 1.04649e-13 0)
(8.45874e-14 1.14337e-13 0)
(7.98898e-14 1.23145e-13 0)
(7.48622e-14 1.30976e-13 0)
(6.95458e-14 1.37728e-13 0)
(6.39867e-14 1.43295e-13 0)
(5.82361e-14 1.47568e-13 0)
(5.23525e-14 1.50429e-13 0)
(4.63963e-14 1.51761e-13 0)
(4.04391e-14 1.51423e-13 0)
(3.4548e-14 1.49266e-13 0)
(2.88111e-14 1.45139e-13 0)
(2.33168e-14 1.38865e-13 0)
(1.81632e-14 1.30253e-13 0)
(1.34372e-14 1.19072e-13 0)
(9.24921e-15 1.05092e-13 0)
(5.73069e-15 8.80674e-14 0)
(2.92681e-15 6.76971e-14 0)
(1.06075e-15 4.36576e-14 0)
(1.07443e-17 1.62613e-14 0)
(2.47513e-18 -1.66807e-14 0)
(7.67547e-16 -4.48712e-14 0)
(2.08847e-15 -6.96465e-14 0)
(4.08994e-15 -9.07095e-14 0)
(6.62097e-15 -1.08346e-13 0)
(9.60872e-15 -1.22835e-13 0)
(1.29848e-14 -1.3444e-13 0)
(1.66797e-14 -1.43399e-13 0)
(2.06158e-14 -1.49933e-13 0)
(2.47199e-14 -1.54239e-13 0)
(2.89482e-14 -1.56503e-13 0)
(3.32079e-14 -1.56878e-13 0)
(3.74829e-14 -1.5552e-13 0)
(4.16958e-14 -1.52579e-13 0)
(4.58182e-14 -1.48173e-13 0)
(4.98012e-14 -1.42424e-13 0)
(5.36095e-14 -1.35451e-13 0)
(5.72106e-14 -1.2736e-13 0)
(6.05742e-14 -1.18257e-13 0)
(6.36739e-14 -1.08243e-13 0)
(6.6486e-14 -9.74193e-14 0)
(6.89893e-14 -8.58799e-14 0)
(7.11663e-14 -7.37224e-14 0)
(7.30017e-14 -6.10407e-14 0)
(7.44824e-14 -4.79302e-14 0)
(7.55991e-14 -3.44847e-14 0)
(7.63455e-14 -2.07996e-14 0)
(7.67177e-14 -6.96949e-15 0)
(7.67138e-14 6.90869e-15 0)
(7.63332e-14 2.0739e-14 0)
(7.55777e-14 3.44257e-14 0)
(7.44522e-14 4.78726e-14 0)
(7.29638e-14 6.09852e-14 0)
(7.11214e-14 7.36693e-14 0)
(6.89379e-14 8.58299e-14 0)
(6.64278e-14 9.73726e-14 0)
(6.36095e-14 1.08202e-13 0)
(6.05048e-14 1.18219e-13 0)
(5.71367e-14 1.27327e-13 0)
(5.35321e-14 1.35424e-13 0)
(4.97215e-14 1.42403e-13 0)
(4.57369e-14 1.48158e-13 0)
(4.16143e-14 1.52571e-13 0)
(3.74022e-14 1.5552e-13 0)
(3.3129e-14 1.56885e-13 0)
(2.88739e-14 1.56519e-13 0)
(2.46486e-14 1.54261e-13 0)
(2.05529e-14 1.49965e-13 0)
(1.66285e-14 1.43441e-13 0)
(1.29316e-14 1.34484e-13 0)
(9.56439e-15 1.22888e-13 0)
(6.60357e-15 1.08411e-13 0)
(4.07191e-15 9.07642e-14 0)
(2.0687e-15 6.96957e-14 0)
(7.63069e-16 4.49261e-14 0)
(2.11271e-18 1.66931e-14 0)
(-3.52409e-20 -1.69718e-14 0)
(4.64076e-16 -4.57119e-14 0)
(1.2592e-15 -7.09974e-14 0)
(2.46312e-15 -9.25149e-14 0)
(3.98725e-15 -1.10554e-13 0)
(5.78369e-15 -1.25385e-13 0)
(7.81325e-15 -1.37273e-13 0)
(1.00373e-14 -1.46458e-13 0)
(1.24042e-14 -1.53159e-13 0)
(1.48709e-14 -1.57577e-13 0)
(1.74639e-14 -1.59885e-13 0)
(1.99458e-14 -1.60266e-13 0)
(2.25725e-14 -1.5892e-13 0)
(2.51015e-14 -1.55921e-13 0)
(2.75813e-14 -1.51421e-13 0)
(2.99774e-14 -1.45547e-13 0)
(3.22675e-14 -1.3842e-13 0)
(3.44339e-14 -1.30151e-13 0)
(3.64579e-14 -1.20847e-13 0)
(3.83224e-14 -1.10613e-13 0)
(4.00139e-14 -9.95487e-14 0)
(4.15197e-14 -8.77546e-14 0)
(4.28281e-14 -7.5329e-14 0)
(4.39308e-14 -6.23683e-14 0)
(4.48202e-14 -4.89703e-14 0)
(4.54908e-14 -3.523e-14 0)
(4.59385e-14 -2.1246e-14 0)
(4.61602e-14 -7.11453e-15 0)
(4.61545e-14 7.0656e-15 0)
(4.59228e-14 2.1197e-14 0)
(4.5466e-14 3.51815e-14 0)
(4.47861e-14 4.89227e-14 0)
(4.38876e-14 6.23228e-14 0)
(4.27759e-14 7.52853e-14 0)
(4.14586e-14 8.7714e-14 0)
(3.99457e-14 9.95102e-14 0)
(3.82476e-14 1.10578e-13 0)
(3.63767e-14 1.20816e-13 0)
(3.43478e-14 1.30124e-13 0)
(3.21775e-14 1.38398e-13 0)
(2.98843e-14 1.4553e-13 0)
(2.74865e-14 1.51409e-13 0)
(2.50066e-14 1.55915e-13 0)
(2.24786e-14 1.5892e-13 0)
(1.98535e-14 1.60272e-13 0)
(1.73766e-14 1.59898e-13 0)
(1.47913e-14 1.57596e-13 0)
(1.23311e-14 1.53185e-13 0)
(9.9678e-15 1.46489e-13 0)
(7.76326e-15 1.37313e-13 0)
(5.75067e-15 1.25431e-13 0)
(3.94027e-15 1.10593e-13 0)
(2.43408e-15 9.25649e-14 0)
(1.2618e-15 7.10508e-14 0)
(4.54547e-16 4.57455e-14 0)
(6.37992e-18 1.6984e-14 0)
(-1.06231e-19 -1.71186e-14 0)
(1.62268e-16 -4.61369e-14 0)
(4.36754e-16 -7.16766e-14 0)
(8.48684e-16 -9.34241e-14 0)
(1.36981e-15 -1.11664e-13 0)
(1.98018e-15 -1.26667e-13 0)
(2.66554e-15 -1.38694e-13 0)
(3.41891e-15 -1.47988e-13 0)
(4.21504e-15 -1.54774e-13 0)
(5.02398e-15 -1.59253e-13 0)
(5.90273e-15 -1.61613e-13 0)
(6.75624e-15 -1.62042e-13 0)
(7.70445e-15 -1.60638e-13 0)
(8.50812e-15 -1.57592e-13 0)
(9.33509e-15 -1.53041e-13 0)
(1.01382e-14 -1.47109e-13 0)
(1.09052e-14 -1.39907e-13 0)
(1.16309e-14 -1.31549e-13 0)
(1.2309e-14 -1.22144e-13 0)
(1.29337e-14 -1.11799e-13 0)
(1.34996e-14 -1.00614e-13 0)
(1.40026e-14 -8.86931e-14 0)
(1.44397e-14 -7.61323e-14 0)
(1.48074e-14 -6.30317e-14 0)
(1.51035e-14 -4.94883e-14 0)
(1.53254e-14 -3.56009e-14 0)
(1.54719e-14 -2.14665e-14 0)
(1.55427e-14 -7.18478e-15 0)
(1.55371e-14 7.14709e-15 0)
(1.54551e-14 2.14299e-14 0)
(1.52974e-14 3.55647e-14 0)
(1.50651e-14 4.94527e-14 0)
(1.47591e-14 6.2997e-14 0)
(1.43822e-14 7.60988e-14 0)
(1.39361e-14 8.86613e-14 0)
(1.34245e-14 1.00586e-13 0)
(1.28512e-14 1.11772e-13 0)
(1.22198e-14 1.2212e-13 0)
(1.15363e-14 1.31528e-13 0)
(1.08061e-14 1.3989e-13 0)
(1.00356e-14 1.47096e-13 0)
(9.2309e-15 1.53032e-13 0)
(8.40395e-15 1.57586e-13 0)
(7.60121e-15 1.60637e-13 0)
(6.65589e-15 1.62046e-13 0)
(5.80805e-15 1.61621e-13 0)
(4.93362e-15 1.59267e-13 0)
(4.13383e-15 1.54793e-13 0)
(3.35488e-15 1.48012e-13 0)
(2.60418e-15 1.38719e-13 0)
(1.91777e-15 1.26697e-13 0)
(1.34523e-15 1.11703e-13 0)
(8.40261e-16 9.34581e-14 0)
(4.05155e-16 7.17039e-14 0)
(1.47662e-16 4.61727e-14 0)
(-2.13107e-18 1.71256e-14 0)
(-2.84076e-18 -1.7123e-14 0)
(-1.35419e-16 -4.61456e-14 0)
(-3.82431e-16 -7.16894e-14 0)
(-7.6298e-16 -9.34392e-14 0)
(-1.24152e-15 -1.11679e-13 0)
(-1.81526e-15 -1.26681e-13 0)
(-2.4705e-15 -1.38708e-13 0)
(-3.18574e-15 -1.48001e-13 0)
(-3.95064e-15 -1.54786e-13 0)
(-4.73423e-15 -1.59265e-13 0)
(-5.5839e-15 -1.61623e-13 0)
(-6.41316e-15 -1.62051e-13 0)
(-7.33929e-15 -1.60647e-13 0)
(-8.12229e-15 -1.576e-13 0)
(-8.93103e-15 -1.53048e-13 0)
(-9.71857e-15 -1.47115e-13 0)
(-1.0472e-14 -1.39912e-13 0)
(-1.11863e-14 -1.31552e-13 0)
(-1.18552e-14 -1.22147e-13 0)
(-1.24728e-14 -1.118e-13 0)
(-1.30341e-14 -1.00615e-13 0)
(-1.35342e-14 -8.86913e-14 0)
(-1.397e-14 -7.61297e-14 0)
(-1.43388e-14 -6.30282e-14 0)
(-1.46377e-14 -4.94842e-14 0)
(-1.48648e-14 -3.55963e-14 0)
(-1.50191e-14 -2.14618e-14 0)
(-1.50997e-14 -7.17867e-15 0)
(-1.51054e-14 7.15351e-15 0)
(-1.50366e-14 2.14365e-14 0)
(-1.48942e-14 3.55717e-14 0)
(-1.46781e-14 4.94608e-14 0)
(-1.43898e-14 6.30056e-14 0)
(-1.40312e-14 7.61087e-14 0)
(-1.36044e-14 8.86708e-14 0)
(-1.31129e-14 1.00596e-13 0)
(-1.25602e-14 1.11782e-13 0)
(-1.19495e-14 1.22131e-13 0)
(-1.12864e-14 1.31538e-13 0)
(-1.05766e-14 1.39899e-13 0)
(-9.82654e-15 1.47105e-13 0)
(-9.0413e-15 1.53041e-13 0)
(-8.2324e-15 1.57594e-13 0)
(-7.44791e-15 1.60645e-13 0)
(-6.51928e-15 1.62052e-13 0)
(-5.68463e-15 1.61627e-13 0)
(-4.82505e-15 1.59272e-13 0)
(-4.03533e-15 1.54795e-13 0)
(-3.26837e-15 1.48014e-13 0)
(-2.5301e-15 1.38726e-13 0)
(-1.84815e-15 1.26699e-13 0)
(-1.29468e-15 1.11694e-13 0)
(-8.08332e-16 9.34627e-14 0)
(-3.76946e-16 7.17157e-14 0)
(-1.42127e-16 4.61636e-14 0)
(7.50302e-19 1.71274e-14 0)
(-7.442e-18 -1.6982e-14 0)
(-4.35289e-16 -4.57417e-14 0)
(-1.20717e-15 -7.1034e-14 0)
(-2.37815e-15 -9.25561e-14 0)
(-3.86021e-15 -1.10597e-13 0)
(-5.62218e-15 -1.25428e-13 0)
(-7.62287e-15 -1.37313e-13 0)
(-9.81112e-15 -1.46496e-13 0)
(-1.21482e-14 -1.53194e-13 0)
(-1.45891e-14 -1.5761e-13 0)
(-1.71546e-14 -1.59916e-13 0)
(-1.96123e-14 -1.60294e-13 0)
(-2.22193e-14 -1.58945e-13 0)
(-2.47286e-14 -1.55943e-13 0)
(-2.71907e-14 -1.51439e-13 0)
(-2.95719e-14 -1.45563e-13 0)
(-3.18489e-14 -1.38432e-13 0)
(-3.40042e-14 -1.3016e-13 0)
(-3.60193e-14 -1.20854e-13 0)
(-3.78771e-14 -1.10616e-13 0)
(-3.95631e-14 -9.95489e-14 0)
(-4.10658e-14 -8.7752e-14 0)
(-4.23742e-14 -7.53235e-14 0)
(-4.34781e-14 -6.23599e-14 0)
(-4.43707e-14 -4.8959e-14 0)
(-4.50465e-14 -3.52166e-14 0)
(-4.55007e-14 -2.12307e-14 0)
(-4.57316e-14 -7.0975e-15 0)
(-4.5738e-14 7.08479e-15 0)
(-4.55189e-14 2.12184e-14 0)
(-4.50756e-14 3.5205e-14 0)
(-4.44112e-14 4.89479e-14 0)
(-4.35294e-14 6.23488e-14 0)
(-4.24361e-14 7.53128e-14 0)
(-4.11381e-14 8.77418e-14 0)
(-3.96443e-14 9.95392e-14 0)
(-3.79658e-14 1.10607e-13 0)
(-3.6115e-14 1.20845e-13 0)
(-3.41065e-14 1.30152e-13 0)
(-3.19558e-14 1.38425e-13 0)
(-2.96819e-14 1.45556e-13 0)
(-2.73032e-14 1.51434e-13 0)
(-2.48412e-14 1.55938e-13 0)
(-2.23304e-14 1.58941e-13 0)
(-1.97198e-14 1.60291e-13 0)
(-1.72569e-14 1.59914e-13 0)
(-1.46876e-14 1.57609e-13 0)
(-1.22365e-14 1.53197e-13 0)
(-9.87875e-15 1.46498e-13 0)
(-7.69043e-15 1.37315e-13 0)
(-5.69711e-15 1.25435e-13 0)
(-3.88746e-15 1.10609e-13 0)
(-2.38151e-15 9.25601e-14 0)
(-1.2473e-15 7.10421e-14 0)
(-4.61368e-16 4.57544e-14 0)
(-5.59409e-18 1.69838e-14 0)
(-6.03637e-18 -1.66969e-14 0)
(-7.39218e-16 -4.49173e-14 0)
(-2.03424e-15 -6.97073e-14 0)
(-4.00877e-15 -9.07741e-14 0)
(-6.50001e-15 -1.08415e-13 0)
(-9.45352e-15 -1.22904e-13 0)
(-1.28043e-14 -1.34506e-13 0)
(-1.64667e-14 -1.43462e-13 0)
(-2.03754e-14 -1.4999e-13 0)
(-2.4457e-14 -1.54292e-13 0)
(-2.86602e-14 -1.56553e-13 0)
(-3.2898e-14 -1.56922e-13 0)
(-3.71543e-14 -1.5556e-13 0)
(-4.13488e-14 -1.52614e-13 0)
(-4.54553e-14 -1.48203e-13 0)
(-4.94243e-14 -1.4245e-13 0)
(-5.32202e-14 -1.35471e-13 0)
(-5.6811e-14 -1.27376e-13 0)
(-6.01662e-14 -1.18268e-13 0)
(-6.32595e-14 -1.0825e-13 0)
(-6.60673e-14 -9.74196e-14 0)
(-6.85681e-14 -8.58771e-14 0)
(-7.07436e-14 -7.37137e-14 0)
(-7.25795e-14 -6.10289e-14 0)
(-7.40632e-14 -4.79132e-14 0)
(-7.51852e-14 -3.44648e-14 0)
(-7.59388e-14 -2.07738e-14 0)
(-7.6319e-14 -6.94148e-15 0)
(-7.63244e-14 6.94181e-15 0)
(-7.59554e-14 2.07741e-14 0)
(-7.52138e-14 3.4465e-14 0)
(-7.41037e-14 4.7913e-14 0)
(-7.26309e-14 6.10294e-14 0)
(-7.08048e-14 7.37134e-14 0)
(-6.86384e-14 8.58774e-14 0)
(-6.61466e-14 9.74191e-14 0)
(-6.33472e-14 1.0825e-13 0)
(-6.02612e-14 1.18266e-13 0)
(-5.69115e-14 1.27375e-13 0)
(-5.33256e-14 1.35468e-13 0)
(-4.95333e-14 1.42448e-13 0)
(-4.55662e-14 1.48198e-13 0)
(-4.14602e-14 1.5261e-13 0)
(-3.72642e-14 1.55555e-13 0)
(-3.3006e-14 1.56917e-13 0)
(-2.87635e-14 1.56546e-13 0)
(-2.45488e-14 1.54286e-13 0)
(-2.04622e-14 1.49981e-13 0)
(-1.65555e-14 1.43455e-13 0)
(-1.28652e-14 1.34502e-13 0)
(-9.48352e-15 1.22894e-13 0)
(-6.56318e-15 1.08404e-13 0)
(-4.06479e-15 9.07743e-14 0)
(-2.02687e-15 6.9709e-14 0)
(-7.48588e-16 4.49159e-14 0)
(-2.34892e-18 1.66972e-14 0)
(-1.2451e-17 -1.62645e-14 0)
(-1.04779e-15 -4.36716e-14 0)
(-2.88104e-15 -6.77006e-14 0)
(-5.66029e-15 -8.80837e-14 0)
(-9.17115e-15 -1.05123e-13 0)
(-1.33264e-14 -1.19101e-13 0)
(-1.80319e-14 -1.30282e-13 0)
(-2.31703e-14 -1.38904e-13 0)
(-2.86482e-14 -1.45182e-13 0)
(-3.43679e-14 -1.4931e-13 0)
(-4.02411e-14 -1.51473e-13 0)
(-4.61835e-14 -1.51813e-13 0)
(-5.21245e-14 -1.50484e-13 0)
(-5.79923e-14 -1.47625e-13 0)
(-6.37288e-14 -1.43355e-13 0)
(-6.92741e-14 -1.37787e-13 0)
(-7.45776e-14 -1.31037e-13 0)
(-7.95931e-14 -1.23205e-13 0)
(-8.42798e-14 -1.14398e-13 0)
(-8.85997e-14 -1.04707e-13 0)
(-9.25205e-14 -9.42355e-14 0)
(-9.60124e-14 -8.30684e-14 0)
(-9.90507e-14 -7.13072e-14 0)
(-1.01614e-13 -5.90352e-14 0)
(-1.03684e-13 -4.63513e-14 0)
(-1.05248e-13 -3.33383e-14 0)
(-1.06297e-13 -2.00964e-14 0)
(-1.06826e-13 -6.70902e-15 0)
(-1.06832e-13 6.72043e-15 0)
(-1.06314e-13 2.01078e-14 0)
(-1.05275e-13 3.33498e-14 0)
(-1.03721e-13 4.63631e-14 0)
(-1.01661e-13 5.9047e-14 0)
(-9.91084e-14 7.13189e-14 0)
(-9.60798e-14 8.30788e-14 0)
(-9.25965e-14 9.42445e-14 0)
(-8.86833e-14 1.04715e-13 0)
(-8.437e-14 1.14404e-13 0)
(-7.96892e-14 1.23209e-13 0)
(-7.46781e-14 1.31039e-13 0)
(-6.93783e-14 1.37786e-13 0)
(-6.3835e-14 1.43352e-13 0)
(-5.80986e-14 1.47619e-13 0)
(-5.22306e-14 1.50476e-13 0)
(-4.62863e-14 1.51804e-13 0)
(-4.03383e-14 1.51461e-13 0)
(-3.44647e-14 1.49295e-13 0)
(-2.87347e-14 1.45168e-13 0)
(-2.32317e-14 1.38888e-13 0)
(-1.81029e-14 1.30257e-13 0)
(-1.34117e-14 1.19084e-13 0)
(-9.19431e-15 1.05112e-13 0)
(-5.65925e-15 8.80625e-14 0)
(-2.93304e-15 6.76819e-14 0)
(-1.07884e-15 4.3669e-14 0)
(-1.35474e-17 1.62602e-14 0)
(-1.096e-17 -1.56821e-14 0)
(-1.36444e-15 -4.1995e-14 0)
(-3.73918e-15 -6.5004e-14 0)
(-7.34645e-15 -8.44726e-14 0)
(-1.18893e-14 -1.00714e-13 0)
(-1.7257e-14 -1.14013e-13 0)
(-2.33252e-14 -1.24635e-13 0)
(-2.99433e-14 -1.32819e-13 0)
(-3.69885e-14 -1.38769e-13 0)
(-4.43401e-14 -1.42677e-13 0)
(-5.18809e-14 -1.44709e-13 0)
(-5.95095e-14 -1.45014e-13 0)
(-6.71295e-14 -1.43732e-13 0)