/*--------------------------------*- C++ -*----------------------------------*\
| =========                 |                                                 |
| \\      /  F ield         | OpenFOAM: The Open Source CFD Toolbox           |
|  \\    /   O peration     | Version:  5.0                                   |
|   \\  /    A nd           | Web:      www.OpenFOAM.org                      |
|    \\/     M anipulation  |                                                 |
\*---------------------------------------------------------------------------*/
FoamFile
{
    version     2.0;
    format      ascii;
    class       volVectorField;
    location    "3.2";
    object      U;
}
// * * * * * * * * * * * * * * * * * * * * * * * * * * * * * * * * * * * * * //

dimensions      [0 1 -1 0 0 0 0];

internalField   nonuniform List<vector> 
25
(
(1 -7.72506e-10 2.01403e-29)
(1 1.99022e-09 -3.2324e-23)
(1 2.71463e-09 -3.23241e-23)
(1 5.04171e-09 -3.2324e-23)
(1 7.29177e-10 -5.99804e-30)
(0.92 -2.40428e-10 -7.11298e-37)
(0.92 5.03175e-09 2.79794e-23)
(0.92 1.07646e-08 -3.32343e-29)
(0.92 1.23722e-08 -2.79794e-23)
(0.92 2.86533e-09 -2.79794e-23)
(0.76 4.94037e-09 -2.73702e-23)
(0.76 8.02667e-09 3.47807e-29)
(0.76 2.6023e-08 2.79794e-23)
(0.76 1.73718e-08 -5.59588e-23)
(0.76 6.55972e-09 -5.59588e-23)
(0.52 9.15125e-09 5.48441e-23)
(0.52 1.02312e-08 2.79796e-23)
(0.52 3.55771e-08 -5.59588e-23)
(0.52 1.96153e-08 -2.79797e-23)
(0.52 8.24443e-09 5.59588e-23)
(0.2 4.35603e-09 3.93808e-23)
(0.2 4.51499e-09 1.99393e-23)
(0.2 1.57676e-08 -5.9818e-23)
(0.2 8.18559e-09 -1.99394e-23)
(0.2 3.47531e-09 3.98787e-23)
)
;

boundaryField
{
    top
    {
        type            fixedValue;
        value           uniform (0 0 0);
    }
    bottom
    {
        type            symmetryPlane;
    }
    inlet
    {
        type            pressureInletVelocity;
        value           nonuniform List<vector> 5((1 -0 -0) (0.92 -0 -0) (0.76 -0 -0) (0.52 -0 -0) (0.2 -0 -0));
    }
    outlet
    {
        type            inletOutlet;
        inletValue      nonuniform 0();
        value           nonuniform 0();
    }
    frontAndBack
    {
        type            empty;
    }
    procBoundary0to1
    {
        type            processor;
        value           nonuniform List<vector> 5((1 -3.37336e-09 6.46481e-23) (0.92 -7.28291e-09 -2.79794e-23) (0.76 -8.50287e-09 2.79794e-23) (0.52 -9.51329e-09 5.59587e-23) (0.2 -4.05857e-09 3.98787e-23));
    }
}


// ************************************************************************* //
