/*--------------------------------*- C++ -*----------------------------------*\
| =========                 |                                                 |
| \\      /  F ield         | OpenFOAM: The Open Source CFD Toolbox           |
|  \\    /   O peration     | Version:  5.0                                   |
|   \\  /    A nd           | Web:      www.OpenFOAM.org                      |
|    \\/     M anipulation  |                                                 |
\*---------------------------------------------------------------------------*/
FoamFile
{
    version     2.0;
    format      ascii;
    class       volScalarField;
    location    "0.3";
    object      p;
}
// * * * * * * * * * * * * * * * * * * * * * * * * * * * * * * * * * * * * * //

dimensions      [0 2 -2 0 0 0 0];

internalField   nonuniform List<scalar> 
100
(
4.8235e-09
5.01876e-09
2.47854e-09
2.44642e-09
2.8947e-10
4.64057e-11
-2.11264e-09
-2.1663e-09
-4.68522e-09
-4.53899e-09
4.81975e-09
5.01134e-09
2.47652e-09
2.44788e-09
2.88119e-10
4.76144e-11
-2.11397e-09
-2.16458e-09
-4.68015e-09
-4.53717e-09
4.83627e-09
5.01827e-09
2.47216e-09
2.45149e-09
2.84818e-10
5.06978e-11
-2.11732e-09
-2.16069e-09
-4.68804e-09
-4.55376e-09
4.85812e-09
5.0333e-09
2.46883e-09
2.45437e-09
2.82141e-10
5.30774e-11
-2.11985e-09
-2.15794e-09
-4.70255e-09
-4.57431e-09
4.87173e-09
5.04419e-09
2.46715e-09
2.45586e-09
2.8069e-10
5.41831e-11
-2.12095e-09
-2.1569e-09
-4.7124e-09
-4.58636e-09
4.87222e-09
5.04502e-09
2.46684e-09
2.45612e-09
2.80327e-10
5.41748e-11
-2.12078e-09
-2.15723e-09
-4.71237e-09
-4.58569e-09
4.85926e-09
5.03542e-09
2.46791e-09
2.45508e-09
2.81107e-10
5.3054e-11
-2.11939e-09
-2.1589e-09
-4.70264e-09
-4.5725e-09
4.83748e-09
5.02097e-09
2.47071e-09
2.4526e-09
2.83219e-10
5.06637e-11
-2.11663e-09
-2.16216e-09
-4.68892e-09
-4.55165e-09
4.81987e-09
5.01331e-09
2.47466e-09
2.44928e-09
2.86127e-10
4.75739e-11
-2.11317e-09
-2.16643e-09
-4.68271e-09
-4.53591e-09
4.82181e-09
5.0191e-09
2.47638e-09
2.44799e-09
2.87243e-10
4.63588e-11
-2.11181e-09
-2.16839e-09
-4.6901e-09
-4.53949e-09
)
;

boundaryField
{
    top
    {
        type            zeroGradient;
    }
    bottom
    {
        type            zeroGradient;
    }
    inlet
    {
        type            fixedValue;
        value           uniform 0;
    }
    outlet
    {
        type            fixedValue;
        value           uniform 0;
    }
    frontAndBack
    {
        type            empty;
    }
}


// ************************************************************************* //
