/*--------------------------------*- C++ -*----------------------------------*\
| =========                 |                                                 |
| \\      /  F ield         | OpenFOAM: The Open Source CFD Toolbox           |
|  \\    /   O peration     | Version:  5.0                                   |
|   \\  /    A nd           | Web:      www.OpenFOAM.org                      |
|    \\/     M anipulation  |                                                 |
\*---------------------------------------------------------------------------*/
FoamFile
{
    version     2.0;
    format      ascii;
    class       volVectorField;
    location    "0.3";
    object      U;
}
// * * * * * * * * * * * * * * * * * * * * * * * * * * * * * * * * * * * * * //

dimensions      [0 1 -1 0 0 0 0];

internalField   nonuniform List<vector> 
100
(
(0.00499996 -1.6762e-12 -1.7423e-33)
(0.00499996 -8.98451e-13 -5.06826e-33)
(0.00499996 2.79882e-13 -8.51022e-34)
(0.00499996 -2.44375e-13 -1.52141e-33)
(0.00499996 2.19601e-13 6.25822e-34)
(0.00499996 -2.21855e-13 3.33894e-33)
(0.00499996 2.43791e-13 9.2176e-34)
(0.00499996 -2.7841e-13 -9.92151e-34)
(0.00499996 8.12467e-13 -4.69459e-33)
(0.00499996 1.53961e-12 -7.66217e-33)
(0.0149999 -4.85639e-12 2.78791e-45)
(0.0149999 -2.74602e-12 1.89226e-33)
(0.0149999 7.57911e-13 6.52346e-33)
(0.0149999 -6.75887e-13 -7.41774e-33)
(0.0149999 6.07404e-13 -2.45507e-33)
(0.0149999 -6.07799e-13 1.93323e-33)
(0.0149999 6.65013e-13 -4.78753e-33)
(0.0149999 -7.49221e-13 1.09859e-32)
(0.0149999 2.42714e-12 2.89057e-33)
(0.0149999 4.39664e-12 9.88364e-33)
(0.0249998 -6.70263e-12 1.33792e-32)
(0.0249998 -4.12313e-12 -4.49291e-32)
(0.0249998 9.08292e-13 2.62538e-33)
(0.0249998 -8.30425e-13 -4.47457e-33)
(0.0249998 7.4519e-13 -4.91121e-33)
(0.0249998 -7.47188e-13 -3.13074e-33)
(0.0249998 8.16665e-13 8.2797e-33)
(0.0249998 -9.06807e-13 -1.09533e-32)
(0.0249998 3.46923e-12 -2.29148e-32)
(0.0249998 5.8803e-12 5.0738e-32)
(0.0349998 -5.92792e-12 9.57109e-33)
(0.0349998 -3.9227e-12 -5.05935e-32)
(0.0349998 6.86445e-13 -5.27562e-33)
(0.0349998 -6.52357e-13 6.71878e-33)
(0.0349998 5.83722e-13 9.1348e-33)
(0.0349998 -5.85161e-13 1.34879e-33)
(0.0349998 6.34415e-13 5.97378e-33)
(0.0349998 -6.99348e-13 -3.87872e-33)
(0.0349998 2.98619e-12 -2.47154e-33)
(0.0349998 4.86829e-12 3.34949e-32)
(0.0449998 -2.59428e-12 -5.59304e-32)
(0.0449998 -1.86364e-12 2.64346e-32)
(0.0449998 2.36848e-13 -7.94227e-33)
(0.0449998 -2.40528e-13 -5.80293e-33)
(0.0449998 2.14751e-13 6.76806e-33)
(0.0449998 -2.15893e-13 4.91295e-33)
(0.0449998 2.25386e-13 2.26157e-33)
(0.0449998 -2.61633e-13 7.33817e-34)
(0.0449998 8.46741e-13 0)
(0.0449998 1.54408e-12 0)
(0.0549998 1.65056e-12 2.69447e-32)
(0.0549998 9.07507e-13 -2.04032e-32)
(0.0549998 -2.76721e-13 6.07246e-33)
(0.0549998 2.40514e-13 8.02165e-34)
(0.0549998 -2.16162e-13 -2.45678e-33)
(0.0549998 2.14915e-13 8.18167e-45)
(0.0549998 -2.48671e-13 3.1937e-33)
(0.0549998 2.42353e-13 -4.08846e-33)
(0.0549998 -1.80387e-12 0)
(0.0549998 -2.47699e-12 0)
(0.0649998 5.15653e-12 1.87501e-45)
(0.0649998 3.14322e-12 2.45952e-32)
(0.0649998 -7.19504e-13 3.95989e-33)
(0.0649998 6.5149e-13 -7.20383e-33)
(0.0649998 -5.84417e-13 2.95809e-33)
(0.0649998 5.8425e-13 1.13599e-33)
(0.0649998 -6.54004e-13 6.23206e-33)
(0.0649998 6.84517e-13 2.33471e-34)
(0.0649998 -3.76976e-12 2.89212e-32)
(0.0649998 -5.63093e-12 0)
(0.0749998 6.2193e-12 5.38648e-32)
(0.0749998 3.63674e-12 1.77722e-32)
(0.0749998 -9.28626e-13 -2.62702e-33)
(0.0749998 8.34218e-13 1.18689e-32)
(0.0749998 -7.4822e-13 7.37032e-33)
(0.0749998 7.47257e-13 1.12104e-32)
(0.0749998 -8.27018e-13 -1.08918e-32)
(0.0749998 8.98541e-13 2.57564e-32)
(0.0749998 -3.9595e-12 2.2837e-32)
(0.0749998 -6.35602e-12 -1.25655e-32)
(0.0849999 4.64859e-12 -1.61098e-32)
(0.0849999 2.53792e-12 -4.31047e-33)
(0.0849999 -7.65841e-13 2.62258e-33)
(0.0849999 6.75709e-13 4.70826e-33)
(0.0849999 -6.07149e-13 4.11539e-33)
(0.0849999 6.07693e-13 -4.4032e-33)
(0.0849999 -6.70827e-13 -4.92741e-33)
(0.0849999 7.4777e-13 -6.36634e-33)
(0.0849999 -2.63758e-12 -2.42357e-33)
(0.0849999 -4.60192e-12 -2.50247e-32)
(0.095 1.62691e-12 9.05826e-33)
(0.095 8.52482e-13 1.05414e-33)
(0.095 -2.84498e-13 1.78693e-33)
(0.095 2.48296e-13 -2.11686e-33)
(0.095 -2.233e-13 5.17208e-34)
(0.095 2.22109e-13 1.10434e-33)
(0.095 -2.4353e-13 -3.0785e-33)
(0.095 2.76053e-13 -2.71505e-33)
(0.095 -8.67414e-13 4.94376e-33)
(0.095 -1.58658e-12 -1.53522e-32)
)
;

boundaryField
{
    top
    {
        type            fixedValue;
        value           uniform (0.1 0 0);
    }
    bottom
    {
        type            fixedValue;
        value           uniform (0 0 0);
    }
    inlet
    {
        type            zeroGradient;
    }
    outlet
    {
        type            zeroGradient;
    }
    frontAndBack
    {
        type            empty;
    }
}


// ************************************************************************* //
