/*--------------------------------*- C++ -*----------------------------------*\
| =========                 |                                                 |
| \\      /  F ield         | OpenFOAM: The Open Source CFD Toolbox           |
|  \\    /   O peration     | Version:  5.0                                   |
|   \\  /    A nd           | Web:      www.OpenFOAM.org                      |
|    \\/     M anipulation  |                                                 |
\*---------------------------------------------------------------------------*/
FoamFile
{
    version     2.0;
    format      ascii;
    class       surfaceScalarField;
    location    "209";
    object      phi;
}
// * * * * * * * * * * * * * * * * * * * * * * * * * * * * * * * * * * * * * //

dimensions      [0 3 -1 0 0 0 0];

internalField   nonuniform List<scalar> 
3052
(
4.1465e-22
-2.36891e-21
3.53605e-21
-3.52792e-21
1.2103e-20
-8.84923e-21
2.04934e-20
-8.76421e-21
2.94092e-20
-9.15704e-21
4.0779e-20
-1.15941e-20
5.28534e-20
-1.22405e-20
6.53434e-20
-1.26506e-20
7.84857e-20
-1.33411e-20
9.20174e-20
-1.37195e-20
1.0564e-19
-1.37968e-20
1.19256e-19
-1.37853e-20
1.32748e-19
-1.36543e-20
1.45949e-19
-1.3356e-20
1.58728e-19
-1.29438e-20
1.70989e-19
-1.24216e-20
1.82603e-19
-1.1776e-20
1.93499e-19
-1.10477e-20
2.03567e-19
-1.02205e-20
2.12752e-19
-9.32383e-21
2.20958e-19
-8.33891e-21
2.28173e-19
-7.32272e-21
2.34301e-19
-6.22552e-21
2.393e-19
-5.06595e-21
2.43144e-19
-3.90682e-21
2.45901e-19
-2.79807e-21
2.47416e-19
-1.55179e-21
2.47726e-19
-3.18962e-22
2.4674e-19
9.76886e-22
2.44576e-19
2.17198e-21
2.41228e-19
3.37632e-21
2.36834e-19
4.4768e-21
2.3129e-19
5.6616e-21
2.24743e-19
6.7001e-21
2.17158e-19
7.75026e-21
2.08674e-19
8.66961e-21
1.99244e-19
9.60856e-21
1.89048e-19
1.03885e-20
1.78082e-19
1.11561e-20
1.66474e-19
1.17919e-20
1.54277e-19
1.2351e-20
1.41672e-19
1.27551e-20
1.28696e-19
1.31106e-20
1.15528e-19
1.33084e-20
1.02266e-19
1.34035e-20
8.90904e-20
1.33278e-20
7.61134e-20
1.3135e-20
6.35104e-20
1.27619e-20
5.14366e-20
1.224e-20
4.00949e-20
1.15054e-20
2.96026e-20
1.0594e-20
2.03256e-20
9.43439e-21
1.25294e-20
8.02175e-21
5.89039e-21
6.67782e-21
1.80242e-21
4.16937e-21
1.80813e-21
2.27895e-21
-5.02483e-21
6.42121e-21
-8.06012e-21
1.00911e-20
-1.39324e-20
1.74595e-20
-1.67757e-20
2.75062e-20
-1.99216e-20
3.74987e-20
-2.20663e-20
4.84614e-20
-2.36262e-20
6.0371e-20
-2.50575e-20
7.26237e-20
-2.60611e-20
8.51018e-20
-2.6673e-20
9.78063e-20
-2.69524e-20
1.1054e-19
-2.69358e-20
1.23112e-19
-2.66265e-20
1.35394e-19
-2.60723e-20
1.47307e-19
-2.52717e-20
1.58712e-19
-2.42487e-20
1.69544e-19
-2.30049e-20
1.79683e-19
-2.15843e-20
1.89078e-19
-1.99687e-20
1.97621e-19
-1.82107e-20
2.05291e-19
-1.6292e-20
2.11979e-19
-1.42746e-20
2.17699e-19
-1.2126e-20
2.2239e-19
-9.92785e-21
2.26071e-19
-7.6956e-21
2.28612e-19
-5.43895e-21
2.30062e-19
-3.03956e-21
2.30318e-19
-6.15033e-22
2.2945e-19
1.85866e-21
2.27405e-19
4.26972e-21
2.24308e-19
6.64152e-21
2.20167e-19
8.8656e-21
2.15101e-19
1.10877e-20
2.09018e-19
1.31851e-20
2.02012e-19
1.52186e-20
1.94065e-19
1.70653e-20
1.8534e-19
1.88281e-20
1.75813e-19
2.03929e-20
1.65624e-19
2.18206e-20
1.54801e-19
2.30306e-20
1.4347e-19
2.40903e-20
1.31658e-19
2.49134e-20
1.19567e-19
2.55616e-20
1.07269e-19
2.59586e-20
9.49166e-20
2.61382e-20
8.26051e-20
2.60315e-20
7.04994e-20
2.56471e-20
5.87504e-20
2.49423e-20
4.75115e-20
2.39031e-20
3.68766e-20
2.24537e-20
2.71979e-20
2.07836e-20
1.85127e-20
1.85373e-20
1.10441e-20
1.56409e-20
5.71633e-21
1.25001e-20
1.65382e-21
8.23361e-21
3.46202e-21
1.72892e-23
-5.02453e-21
4.0127e-21
-1.31288e-20
9.30076e-21
-1.9549e-20
1.64932e-20
-2.44164e-20
2.46102e-20
-2.82426e-20
3.40041e-20
-3.16345e-20
4.4291e-20
-3.40749e-20
5.5207e-20
-3.60948e-20
6.65455e-20
-3.75532e-20
7.81866e-20
-3.84296e-20
8.99696e-20
-3.88283e-20
1.01727e-19
-3.88046e-20
1.13361e-19
-3.83992e-20
1.24766e-19
-3.75934e-20
1.358e-19
-3.64348e-20
1.46383e-19
-3.4943e-20
1.56425e-19
-3.31552e-20
1.65838e-19
-3.10734e-20
1.74542e-19
-2.87531e-20
1.82483e-19
-2.62022e-20
1.89594e-19
-2.34607e-20
1.95829e-19
-2.05316e-20
2.0114e-19
-1.74753e-20
2.05506e-19
-1.4303e-20
2.08867e-19
-1.10771e-20
2.11192e-19
-7.75805e-21
2.12488e-19
-4.34891e-21
2.1275e-19
-8.55603e-22
2.11975e-19
2.64436e-21
2.10188e-19
6.10281e-21
2.07408e-19
9.47221e-21
2.03625e-19
1.27452e-20
1.98886e-19
1.59103e-20
1.93233e-19
1.89434e-20
1.86722e-19
2.18196e-20
1.79382e-19
2.45309e-20
1.71273e-19
2.70422e-20
1.62451e-19
2.93339e-20
1.52989e-19
3.1387e-20
1.42946e-19
3.31858e-20
1.32417e-19
3.46922e-20
1.21501e-19
3.59256e-20
1.1029e-19
3.6859e-20
9.88784e-20
3.74693e-20
8.74003e-20
3.77096e-20
7.59762e-20
3.75724e-20
6.47381e-20
3.70178e-20
5.38096e-20
3.59897e-20
4.33689e-20
3.4504e-20
3.3591e-20
3.25384e-20
2.45323e-20
2.98123e-20
1.65949e-20
2.65868e-20
1.00039e-20
2.27609e-20
4.55052e-21
1.77248e-20
1.14917e-21
1.17763e-20
4.61843e-21
6.72787e-22
-5.87075e-21
4.04229e-21
-1.66613e-20
8.38865e-21
-2.38972e-20
1.46288e-20
-3.06277e-20
2.23379e-20
-3.59094e-20
3.07882e-20
-3.99818e-20
4.0159e-20
-4.33485e-20
5.01707e-20
-4.60002e-20
6.05877e-20
-4.78002e-20
7.1269e-20
-4.89363e-20
8.21001e-20
-4.95291e-20
9.29358e-20
-4.9532e-20
1.0364e-19
-4.89876e-20
1.14119e-19
-4.79609e-20
1.2428e-19
-4.64779e-20
1.34032e-19
-4.45677e-20
1.43282e-19
-4.22665e-20
1.5196e-19
-3.96142e-20
1.59995e-19
-3.66459e-20
1.6732e-19
-3.33947e-20
1.73882e-19
-2.98919e-20
1.79627e-19
-2.61778e-20
1.84522e-19
-2.22855e-20
1.88528e-19
-1.82474e-20
1.91608e-19
-1.41004e-20
1.93737e-19
-9.84825e-21
1.94934e-19
-5.50162e-21
1.95195e-19
-1.09716e-21
1.94543e-19
3.31344e-21
1.9295e-19
7.69022e-21
1.90422e-19
1.19671e-20
1.86948e-19
1.61162e-20
1.82595e-19
2.01247e-20
1.77376e-19
2.39884e-20
1.71362e-19
2.76653e-20
1.64577e-19
3.11348e-20
1.57095e-19
3.43518e-20
1.4895e-19
3.73044e-20
1.40223e-19
3.99499e-20
1.30978e-19
4.22729e-20
1.21294e-19
4.42542e-20
1.11241e-19
4.58696e-20
1.00919e-19
4.70768e-20
9.04185e-20
4.78594e-20
7.98484e-20
4.81831e-20
6.93148e-20
4.80084e-20
5.89433e-20
4.72855e-20
4.89026e-20
4.60153e-20
3.93277e-20
4.40987e-20
3.02875e-20
4.14187e-20
2.20926e-20
3.81514e-20
1.47968e-20
3.40457e-20
8.55704e-21
2.86123e-20
4.21031e-21
2.24536e-20
1.24007e-21
1.47227e-20
5.85804e-21
1.37199e-21
-7.30081e-21
3.35618e-21
-1.83622e-20
7.79689e-21
-2.81551e-20
1.32984e-20
-3.59354e-20
2.00137e-20
-4.24604e-20
2.76548e-20
-4.75588e-20
3.61248e-20
-5.17208e-20
4.5173e-20
-5.48834e-20
5.46393e-20
-5.70844e-20
6.43877e-20
-5.85336e-20
7.42396e-20
-5.92499e-20
8.40898e-20
-5.92559e-20
9.38502e-20
-5.862e-20
1.03413e-19
-5.7396e-20
1.12686e-19
-5.56128e-20
1.21588e-19
-5.33264e-20
1.30032e-19
-5.05695e-20
1.3795e-19
-4.73984e-20
1.45281e-19
-4.38456e-20
1.51972e-19
-3.996e-20
1.57963e-19
-3.57765e-20
1.63213e-19
-3.13402e-20
1.67677e-19
-2.66794e-20
1.71328e-19
-2.18454e-20
1.74131e-19
-1.68613e-20
1.76084e-19
-1.17622e-20
1.77179e-19
-6.56881e-21
1.77435e-19
-1.32665e-21
1.76846e-19
3.91988e-21
1.75418e-19
9.10937e-21
1.73128e-19
1.41961e-20
1.69985e-19
1.91517e-20
1.66003e-19
2.39515e-20
1.6125e-19
2.8569e-20
1.55757e-19
3.2971e-20
1.49576e-19
3.71254e-20
1.42739e-19
4.09955e-20
1.35312e-19
4.45462e-20
1.27338e-19
4.77524e-20
1.18894e-19
5.05744e-20
1.10056e-19
5.29801e-20
1.00899e-19
5.49317e-20
9.14816e-20
5.64081e-20
8.1902e-20
5.736e-20
7.22507e-20
5.77514e-20
6.26412e-20
5.75437e-20
5.31986e-20
5.6696e-20
4.40433e-20
5.51145e-20
3.53105e-20
5.27952e-20
2.71833e-20
4.97246e-20
1.96909e-20
4.55566e-20
1.31516e-20
4.03835e-20
7.80944e-21
3.43873e-20
3.38303e-21
2.6636e-20
7.29391e-22
1.74699e-20
6.5949e-21
6.76844e-22
-7.86082e-21
3.14857e-21
-2.05278e-20
6.89216e-21
-3.16144e-20
1.19056e-20
-4.07815e-20
1.77992e-20
-4.83389e-20
2.46268e-20
-5.43764e-20
3.21775e-20
-5.92238e-20
4.02572e-20
-6.289e-20
4.87371e-20
-6.55031e-20
5.7481e-20
-6.72236e-20
6.63409e-20
-6.80626e-20
7.52191e-20
-6.80875e-20
8.40176e-20
-6.73686e-20
9.26404e-20
-6.59594e-20
1.01009e-19
-6.39161e-20
1.09034e-19
-6.12899e-20
1.16649e-19
-5.81306e-20
1.23787e-19
-5.44886e-20
1.30398e-19
-5.04108e-20
1.36423e-19
-4.59457e-20
1.41824e-19
-4.11408e-20
1.46554e-19
-3.60387e-20
1.50582e-19
-3.06838e-20
1.53872e-19
-2.51202e-20
1.5641e-19
-1.9385e-20
1.58176e-19
-1.35174e-20
1.59177e-19
-7.55517e-21
1.59411e-19
-1.54227e-21
1.58884e-19
4.46373e-21
1.57588e-19
1.04095e-20
1.55524e-19
1.62458e-20
1.52695e-19
2.19341e-20
1.49132e-19
2.74497e-20
1.44863e-19
3.27581e-20
1.39922e-19
3.78232e-20
1.34348e-19
4.26039e-20
1.28188e-19
4.70665e-20
1.21484e-19
5.11666e-20
1.14298e-19
5.48694e-20
1.06687e-19
5.81372e-20
9.87164e-20
6.0927e-20
9.04445e-20
6.31978e-20
8.1951e-20
6.49082e-20
7.33088e-20
6.60103e-20
6.46137e-20
6.64645e-20
5.59648e-20
6.62188e-20
4.74667e-20
6.52085e-20
3.92414e-20
6.34094e-20
3.14338e-20
6.07301e-20
2.41255e-20
5.69872e-20
1.75116e-20
5.22969e-20
1.16618e-20
4.64995e-20
6.66958e-21
3.90479e-20
3.23556e-21
3.02967e-20
9.73778e-22
1.97684e-20
7.56961e-21
5.90219e-22
-8.36291e-21
2.86442e-21
-2.25987e-20
6.12913e-21
-3.47461e-20
1.04353e-20
-4.50595e-20
1.5603e-20
-5.3517e-20
2.15974e-20
-6.03827e-20
2.82355e-20
-6.58622e-20
3.53652e-20
-7.00293e-20
4.28709e-20
-7.30209e-20
5.0604e-20
-7.49676e-20
5.84544e-20
-7.59252e-20
6.63299e-20
-7.59716e-20
7.41392e-20
-7.5179e-20
8.18018e-20
-7.36144e-20
8.9236e-20
-7.13413e-20
9.63679e-20
-6.84146e-20
1.03135e-19
-6.48946e-20
1.09481e-19
-6.08334e-20
1.15353e-19
-5.62877e-20
1.20709e-19
-5.13046e-20
1.25508e-19
-4.59402e-20
1.29714e-19
-4.02437e-20
1.33293e-19
-3.42656e-20
1.3622e-19
-2.80484e-20
1.38475e-19
-2.16446e-20
1.4005e-19
-1.50934e-20
1.40943e-19
-8.44639e-21
1.4116e-19
-1.75141e-21
1.40696e-19
4.93734e-21
1.39551e-19
1.15662e-20
1.3772e-19
1.808e-20
1.35217e-19
2.44398e-20
1.32056e-19
3.06055e-20
1.28264e-19
3.65375e-20
1.23873e-19
4.21966e-20
1.1892e-19
4.75422e-20
1.13444e-19
5.25287e-20
1.07486e-19
5.71149e-20
1.01097e-19
6.12561e-20
9.43311e-20
6.49126e-20
8.7244e-20
6.80357e-20
7.98961e-20
7.05795e-20
7.235e-20
7.24907e-20
6.46767e-20
7.3724e-20
5.69578e-20
7.42253e-20
4.92833e-20
7.39417e-20
4.17555e-20
7.28151e-20
3.4483e-20
7.0756e-20
2.75655e-20
6.76944e-20
2.11425e-20
6.36122e-20
1.5295e-20
5.82334e-20
1.01842e-20
5.14544e-20
6.01294e-21
4.34531e-20
2.60681e-21
3.35699e-20
6.07505e-22
2.17759e-20
8.17808e-21
7.09955e-22
-9.04008e-21
2.42637e-21
-2.43057e-20
5.2262e-21
-3.75373e-20
8.90885e-21
-4.87407e-20
1.3405e-20
-5.803e-20
1.86108e-20
-6.56071e-20
2.43486e-20
-7.16335e-20
3.0517e-20
-7.62426e-20
3.70284e-20
-7.95666e-20
4.37451e-20
-8.17174e-20
5.05742e-20
-8.27851e-20
5.74273e-20
-8.28521e-20
6.42296e-20
-8.19998e-20
7.09042e-20
-8.03024e-20
7.73798e-20
-7.78279e-20
8.35955e-20
-7.4641e-20
8.94971e-20
-7.08055e-20
9.50308e-20
-6.63804e-20
1.00153e-19
-6.14221e-20
1.04826e-19
-5.59876e-20
1.09012e-19
-5.01364e-20
1.1268e-19
-4.39194e-20
1.15802e-19
-3.73927e-20
1.18354e-19
-3.06094e-20
1.20323e-19
-2.36222e-20
1.217e-19
-1.64804e-20
1.22484e-19
-9.23506e-21
1.22672e-19
-1.94018e-21
1.22267e-19
5.3498e-21
1.21267e-19
1.25778e-20
1.19675e-19
1.96912e-20
1.17495e-19
2.66383e-20
1.14743e-19
3.33748e-20
1.1144e-19
3.98551e-20
1.07618e-19
4.60371e-20
1.03303e-19
5.18728e-20
9.85319e-20
5.73163e-20
9.33407e-20
6.23228e-20
8.77709e-20
6.68452e-20
8.18702e-20
7.08353e-20
7.56902e-20
7.42432e-20
6.92819e-20
7.70155e-20
6.27013e-20
7.91003e-20
5.60122e-20
8.04426e-20
4.92862e-20
8.09851e-20
4.26091e-20
8.06629e-20
3.60707e-20
7.9403e-20
2.97585e-20
7.71446e-20
2.3774e-20
7.37957e-20
1.82242e-20
6.91862e-20
1.32153e-20
6.33066e-20
8.78339e-21
5.60535e-20
5.01091e-21
4.69872e-20
2.37125e-21
3.621e-20
6.6444e-22
2.3475e-20
8.84136e-21
5.69535e-22
-9.63482e-21
2.00318e-21
-2.57496e-20
4.36144e-21
-3.98958e-20
7.48145e-21
-5.18682e-20
1.12952e-20
-6.18545e-20
1.56705e-20
-7.00109e-20
2.05046e-20
-7.65085e-20
2.5724e-20
-8.14899e-20
3.12235e-20
-8.50924e-20
3.69074e-20
-8.74264e-20
4.26983e-20
-8.85982e-20
4.85194e-20
-8.86882e-20
5.42976e-20
-8.77887e-20
5.99655e-20
-8.59805e-20
6.54683e-20
-8.3338e-20
7.07529e-20
-7.99308e-20
7.57687e-20
-7.58264e-20
8.04735e-20
-7.10889e-20
8.48288e-20
-6.57818e-20
8.88015e-20
-5.99658e-20
9.23604e-20
-5.36987e-20
9.54791e-20
-4.70418e-20
9.81324e-20
-4.00539e-20
1.00304e-19
-3.27922e-20
1.01978e-19
-2.53101e-20
1.03151e-19
-1.76637e-20
1.03818e-19
-9.90751e-21
1.03981e-19
-2.09784e-21
1.03636e-19
5.70481e-21
1.02784e-19
1.34442e-20
1.01429e-19
2.10609e-20
9.95769e-20
2.85047e-20
9.7239e-20
3.57242e-20
9.44359e-20
4.26707e-20
9.11895e-20
4.92946e-20
8.75245e-20
5.55486e-20
8.34683e-20
6.13825e-20
7.90558e-20
6.67464e-20
7.43219e-20
7.1591e-20
6.93064e-20
7.58648e-20
6.40501e-20
7.95125e-20
5.86001e-20
8.248e-20
5.30055e-20
8.47101e-20
4.73222e-20
8.61415e-20
4.16135e-20
8.67115e-20
3.59501e-20
8.63543e-20
3.04137e-20
8.4995e-20
2.50819e-20
8.25385e-20
2.00232e-20
7.88861e-20
1.53464e-20
7.39768e-20
1.11222e-20
6.76282e-20
7.40202e-21
5.96431e-20
4.33748e-21
5.00692e-20
1.91403e-21
3.85687e-20
4.3736e-22
2.48938e-20
9.27719e-21
3.99341e-22
-1.00308e-20
1.61547e-21
-2.69683e-20
3.54801e-21
-4.18241e-20
6.10633e-21
-5.44274e-20
9.19834e-21
-6.49633e-20
1.2746e-20
-7.35839e-20
1.66922e-20
-8.04724e-20
2.09563e-20
-8.57695e-20
2.54513e-20
-8.96021e-20
3.01061e-20
-9.20912e-20
3.48487e-20
-9.33467e-20
3.96186e-20
-9.34594e-20
4.43543e-20
-9.2526e-20
4.90043e-20
-9.06298e-20
5.35176e-20
-8.78509e-20
5.78534e-20
-8.4264e-20
6.1969e-20
-7.99391e-20
6.58319e-20
-7.49482e-20
6.94073e-20
-6.93543e-20
7.26689e-20
-6.32243e-20
7.55906e-20
-5.66193e-20
7.8151e-20
-4.96065e-20
8.03291e-20
-4.22404e-20
8.21091e-20
-3.45852e-20
8.34821e-20
-2.66967e-20
8.44444e-20
-1.86357e-20
8.49948e-20
-1.04583e-20
8.51322e-20
-2.22689e-21
8.48525e-20
5.99811e-21
8.41548e-20
1.41546e-20
8.30398e-20
2.21844e-20
8.15153e-20
3.00315e-20
7.9596e-20
3.76447e-20
7.72943e-20
4.49716e-20
7.46279e-20
5.19601e-20
7.16165e-20
5.85574e-20
6.82866e-20
6.47112e-20
6.46634e-20
7.03701e-20
6.07771e-20
7.54798e-20
5.66587e-20
7.99852e-20
5.23439e-20
8.38311e-20
4.78709e-20
8.69582e-20
4.32809e-20
8.93053e-20
3.86206e-20
9.08087e-20
3.39431e-20
9.14022e-20
2.93098e-20
9.10122e-20
2.47869e-20
8.95525e-20
2.04311e-20
8.69401e-20
1.63149e-20
8.30858e-20
1.25058e-20
7.78273e-20
9.07615e-21
7.10598e-20
6.05925e-21
6.27459e-20
3.48642e-21
5.25405e-20
1.58735e-21
4.03301e-20
4.41856e-22
2.60582e-20
9.71885e-21
3.23786e-22
-1.03586e-20
1.2646e-21
-2.78948e-20
2.74942e-21
-4.33002e-20
4.71899e-21
-5.63971e-20
7.10224e-21
-6.73609e-20
9.85787e-21
-7.63534e-20
1.29228e-20
-8.35494e-20
1.62289e-20
-8.90869e-20
1.97163e-20
-9.30969e-20
2.33296e-20
-9.57095e-20
2.7018e-20
-9.70339e-20
3.07274e-20
-9.71667e-20
3.44086e-20
-9.62046e-20
3.80255e-20
-9.42442e-20
4.15395e-20
-9.1361e-20
4.49137e-20
-8.76345e-20
4.81179e-20
-8.31393e-20
5.11238e-20
-7.79505e-20
5.39085e-20
-7.21348e-20
5.64489e-20
-6.57609e-20
5.87247e-20
-5.88949e-20
6.07162e-20
-5.1601e-20
6.2411e-20
-4.39453e-20
6.37986e-20
-3.59865e-20
6.48715e-20
-2.77842e-20
6.56251e-20
-1.93963e-20
6.60568e-20
-1.08855e-20
6.61613e-20
-2.31968e-21
6.59378e-20
6.23292e-21
6.53898e-20
1.47103e-20
6.4519e-20
2.30577e-20
6.33313e-20
3.12197e-20
6.18342e-20
3.91408e-20
6.00388e-20
4.67646e-20
5.79591e-20
5.40354e-20
5.56128e-20
6.08998e-20
5.30183e-20
6.73035e-20
5.01963e-20
7.31916e-20
4.71684e-20
7.8507e-20
4.39606e-20
8.31939e-20
4.06004e-20
8.7193e-20
3.71173e-20
9.04432e-20
3.35446e-20
9.28814e-20
2.99208e-20
9.44395e-20
2.62874e-20
9.50453e-20
2.26889e-20
9.46271e-20
1.91829e-20
9.3099e-20
1.58205e-20
9.0363e-20
1.26304e-20
8.629e-20
9.69448e-21
8.08143e-20
7.06811e-21
7.38167e-20
4.70544e-21
6.50194e-20
2.72672e-21
5.4395e-20
1.26216e-21
4.1842e-20
3.08144e-22
2.69129e-20
1.00227e-20
2.34454e-22
-1.05845e-20
8.95107e-22
-2.85548e-20
1.95446e-21
-4.43469e-20
3.35495e-21
-5.7796e-20
5.05304e-21
-6.90631e-20
7.01236e-21
-7.83214e-20
9.18608e-21
-8.57339e-20
1.15322e-20
-9.14419e-20
1.40132e-20
-9.55835e-20
1.65839e-20
-9.82801e-20
1.92065e-20
-9.96551e-20
2.18443e-20
-9.9803e-20
2.44664e-20
-9.88241e-20
2.70428e-20
-9.68176e-20
2.95461e-20
-9.38604e-20
3.19494e-20
-9.00349e-20
3.42325e-20
-8.54211e-20
3.63736e-20
-8.00903e-20
3.83577e-20
-7.41167e-20
4.01666e-20
-6.75677e-20
4.17876e-20
-6.05161e-20
4.32064e-20
-5.30252e-20
4.44169e-20
-4.51612e-20
4.54077e-20
-3.69825e-20
4.6176e-20
-2.85512e-20
4.67147e-20
-1.99283e-20
4.70217e-20
-1.11851e-20
4.70928e-20
-2.3881e-21
4.69297e-20
6.39619e-21
4.65317e-20
1.5106e-20
4.59052e-20
2.36835e-20
4.50543e-20
3.20708e-20
4.39839e-20
4.02097e-20
4.27019e-20
4.80441e-20
4.12167e-20
5.55182e-20
3.95421e-20
6.25731e-20
3.769e-20
6.91554e-20
3.56758e-20
7.52053e-20
3.35159e-20
8.06674e-20
3.12283e-20
8.54823e-20
2.88327e-20
8.95894e-20
2.63509e-20
9.29269e-20
2.38065e-20
9.54306e-20
2.12253e-20
9.7025e-20
1.86417e-20
9.76368e-20
1.60884e-20
9.72037e-20
1.36088e-20
9.56119e-20
1.12248e-20
9.27684e-20
8.9839e-21
8.86004e-20
6.92588e-21
8.295e-20
5.04264e-21
7.56364e-20
3.424e-21
6.66742e-20
2.00603e-21
5.58256e-20
8.31654e-22
4.27587e-20
1.7784e-22
2.75784e-20
1.01994e-20
1.37092e-22
-1.07307e-20
5.39832e-22
-2.89378e-20
1.17903e-21
-4.49699e-20
2.01757e-21
-5.86237e-20
3.03016e-21
-7.00732e-20
4.1896e-21
-7.94863e-20
5.47328e-21
-8.70247e-20
6.86147e-21
-9.28349e-20
8.33444e-21
-9.70567e-20
9.86667e-21
-9.98099e-20
1.14147e-20
-1.012e-19
1.29706e-20
-1.01356e-19
1.45312e-20
-1.00382e-19
1.60639e-20
-9.83457e-20
1.75494e-20
-9.53425e-20
1.89754e-20
-9.14596e-20
2.03295e-20
-8.67752e-20
2.16009e-20
-8.13613e-20
2.27782e-20
-7.52926e-20
2.38519e-20
-6.8641e-20
2.48114e-20
-6.14761e-20
2.5654e-20
-5.38628e-20
2.63726e-20
-4.5868e-20
2.69671e-20
-3.75554e-20
2.74304e-20
-2.89893e-20
2.77558e-20
-2.0235e-20
2.79338e-20
-1.13605e-20
2.79661e-20
-2.43134e-21
2.78569e-20
6.48704e-21
2.76138e-20
1.53343e-20
2.72383e-20
2.40496e-20
2.67294e-20
3.25736e-20
2.60878e-20
4.08461e-20
2.53194e-20
4.8808e-20
2.44316e-20
5.64022e-20
2.34318e-20
6.35708e-20
2.2327e-20
7.0258e-20
2.11259e-20
7.64048e-20
1.98389e-20
8.19526e-20
1.84778e-20
8.68416e-20
1.70544e-20
9.1012e-20
1.55828e-20
9.44007e-20
1.40735e-20
9.69413e-20
1.25424e-20
9.85601e-20
1.10073e-20
9.91798e-20
9.50215e-21
9.87188e-20
8.04501e-21
9.70962e-20
6.66288e-21
9.42117e-20
5.35348e-21
8.99181e-20
4.15318e-21
8.41417e-20
3.11312e-21
7.68377e-20
2.08712e-21
6.76388e-20
1.18326e-21
5.64782e-20
6.28769e-22
4.34188e-20
1.74818e-22
2.78836e-20
1.03667e-20
4.67682e-23
-1.07648e-20
1.8476e-22
-2.9069e-20
4.1237e-22
-4.51758e-20
6.97555e-22
-5.88852e-20
1.01891e-21
-7.03887e-20
1.38e-21
-7.9848e-20
1.7757e-21
-8.74234e-20
2.20478e-21
-9.32644e-20
2.65817e-21
-9.75062e-20
3.13562e-21
-1.00282e-19
3.6308e-21
-1.01692e-19
4.13632e-21
-1.01858e-19
4.62475e-21
-1.00866e-19
5.0943e-21
-9.88106e-20
5.55524e-21
-9.58005e-20
6.00125e-21
-9.19039e-20
6.42496e-21
-8.71973e-20
6.82263e-21
-8.17575e-20
7.18937e-21
-7.56592e-20
7.52337e-21
-6.89735e-20
7.82185e-21
-6.17674e-20
8.08561e-21
-5.41116e-20
8.31619e-21
-4.60728e-20
8.51402e-21
-3.77164e-20
8.66837e-21
-2.91095e-20
8.77277e-21
-2.03206e-20
8.82116e-21
-1.14134e-20
8.81782e-21
-2.44973e-21
8.76803e-21
6.50879e-21
8.67948e-21
1.54018e-20
8.55161e-21
2.4164e-20
8.3831e-21
3.27337e-20
8.17283e-21
4.10489e-20
7.9215e-21
4.90526e-20
7.63367e-21
5.66847e-20
7.30968e-21
6.38912e-20
6.95406e-21
7.061e-20
6.56875e-21
7.67867e-20
6.1575e-21
8.23591e-20
5.72539e-21
8.72707e-20
5.27766e-21
9.14586e-20
4.81936e-21
9.48586e-20
4.35855e-21
9.74027e-20
3.87974e-21
9.90389e-20
3.37907e-21
9.96803e-20
2.9199e-21
9.91936e-20
2.50284e-21
9.7539e-20
2.105e-21
9.46109e-20
1.74112e-21
9.0337e-20
1.41747e-21
8.45689e-20
1.08841e-21
7.70574e-20
8.34162e-22
6.78707e-20
5.56015e-22
5.68549e-20
1.10949e-22
4.34992e-20
-4.1863e-23
2.80397e-20
1.03235e-20
-3.37172e-23
-1.07385e-20
-1.45067e-22
-2.89224e-20
-3.32969e-22
-4.49447e-20
-6.19056e-22
-5.85782e-20
-9.83187e-22
-7.00111e-20
-1.41854e-21
-7.94093e-20
-1.90774e-21
-8.69339e-20
-2.43088e-21
-9.2738e-20
-2.97646e-21
-9.6954e-20
-3.54888e-21
-9.97036e-20
-4.14138e-21
-1.01093e-19
-4.74259e-21
-1.01251e-19
-5.32501e-21
-1.00277e-19
-5.88504e-21
-9.82458e-20
-6.43346e-21
-9.52474e-20
-6.96289e-21
-9.13701e-20
-7.46652e-21
-8.66894e-20
-7.94108e-21
-8.1281e-20
-8.38115e-21
-7.52154e-20
-8.78542e-21
-6.85653e-20
-9.14628e-21
-6.13993e-20
-9.46082e-21
-5.37856e-20
-9.7213e-21
-4.57878e-20
-9.93329e-21
-3.74789e-20
-1.0095e-20
-2.89241e-20
-1.02158e-20
-2.01922e-20
-1.02931e-20
-1.13417e-20
-1.03275e-20
-2.43409e-21
-1.03085e-20
6.4751e-21
-1.02388e-20
1.53184e-20
-1.01157e-20
2.40339e-20
-9.94537e-21
3.25544e-20
-9.72491e-21
4.08231e-20
-9.46015e-21
4.8781e-20
-9.14881e-21
5.63715e-20
-8.79716e-21
6.35348e-20
-8.40368e-21
7.02142e-20
-7.9746e-21
7.63515e-20
-7.50877e-21
8.18911e-20
-7.01411e-21
8.6772e-20
-6.49062e-21
9.0934e-20
-5.94852e-21
9.43135e-20
-5.39334e-21
9.68456e-20
-4.81385e-21
9.84547e-20
-4.19933e-21
9.90665e-20
-3.60404e-21
9.85961e-20
-3.01577e-21
9.6966e-20
-2.42572e-21
9.40808e-20
-1.86659e-21
8.97796e-20
-1.33208e-21
8.39877e-20
-8.0513e-22
7.67065e-20
-5.09441e-22
6.75313e-20
-3.37533e-22
5.63241e-20
-2.8679e-24
4.33288e-20
3.4643e-23
2.78184e-20
1.03492e-20
-1.4301e-22
-1.0575e-20
-4.84228e-22
-2.85315e-20
-1.0895e-21
-4.43015e-20
-1.92588e-21
-5.77009e-20
-2.98193e-21
-6.89357e-20
-4.21728e-21
-7.81655e-20
-5.5936e-21
-8.55517e-20
-7.07809e-21
-9.12459e-20
-8.64624e-21
-9.53773e-20
-1.02715e-20
-9.80671e-20
-1.19134e-20
-9.94403e-20
-1.35622e-20
-9.95909e-20
-1.52109e-20
-9.86189e-20
-1.68277e-20
-9.66197e-20
-1.83953e-20
-9.36712e-20
-1.99002e-20
-8.98554e-20
-2.13313e-20
-8.52506e-20
-2.26736e-20
-7.99294e-20
-2.39185e-20
-7.39647e-20
-2.50527e-20
-6.74244e-20
-2.60707e-20
-6.03758e-20
-2.69606e-20
-5.28843e-20
-2.77209e-20
-4.50192e-20
-2.83422e-20
-3.68475e-20
-2.88261e-20
-2.84362e-20
-2.91681e-20
-1.98473e-20
-2.93704e-20
-1.11412e-20
-2.94269e-20
-2.37652e-21
-2.93413e-20
6.38646e-21
-2.91083e-20
1.50842e-20
-2.87359e-20
2.36553e-20
-2.82222e-20
3.20379e-20
-2.75765e-20
4.01722e-20
-2.67953e-20
4.79989e-20
-2.58912e-20
5.54623e-20
-2.48626e-20
6.25035e-20
-2.37251e-20
6.90708e-20
-2.24803e-20
7.5104e-20
-2.11434e-20
8.05483e-20
-1.97196e-20
8.53447e-20
-1.82265e-20
8.94346e-20
-1.66725e-20
9.27545e-20
-1.50761e-20
9.52406e-20
-1.34475e-20
9.68165e-20
-1.18047e-20
9.74112e-20
-1.01657e-20
9.69642e-20
-8.54203e-21
9.53592e-20
-6.97118e-21
9.24915e-20
-5.46806e-21
8.83278e-20
-4.0634e-21
8.2705e-20
-2.85553e-21
7.53343e-20
-1.74938e-21
6.63685e-20
-9.02188e-22
5.56503e-20
-6.0079e-22
4.25644e-20
-2.25926e-22
2.74573e-20
1.01218e-20
-1.9518e-22
-1.03674e-20
-8.14673e-22
-2.7848e-20
-1.83018e-21
-4.32044e-20
-3.24445e-21
-5.62415e-20
-4.9921e-21
-6.71578e-20
-7.02321e-21
-7.61154e-20
-9.28609e-21
-8.32753e-20
-1.17281e-20
-8.87908e-20
-1.42991e-20
-9.27881e-20
-1.69575e-20
-9.53899e-20
-1.96653e-20
-9.6713e-20
-2.2388e-20
-9.68507e-20
-2.50921e-20
-9.58974e-20
-2.77497e-20
-9.39455e-20
-3.03276e-20
-9.10752e-20
-3.28043e-20
-8.7362e-20
-3.51545e-20
-8.28824e-20
-3.73621e-20
-7.77067e-20
-3.94052e-20
-7.19068e-20
-4.1271e-20
-6.55462e-20
-4.29404e-20
-5.86946e-20
-4.4404e-20
-5.14125e-20
-4.56515e-20
-4.37684e-20
-4.66777e-20
-3.58215e-20
-4.74748e-20
-2.76415e-20
-4.80375e-20
-1.92839e-20
-4.83603e-20
-1.08152e-20
-4.84426e-20
-2.2862e-21
-4.82866e-20
6.23701e-21
-4.7898e-20
1.47005e-20
-4.72781e-20
2.30348e-20
-4.64284e-20
3.11877e-20
-4.53541e-20
3.90937e-20
-4.40618e-20
4.67036e-20
-4.25623e-20
5.39558e-20
-4.08661e-20
6.08026e-20
-3.89857e-20
6.71817e-20
-3.69332e-20
7.3045e-20
-3.47266e-20
7.8331e-20
-3.23823e-20
8.29916e-20
-2.99223e-20
8.69613e-20
-2.73661e-20
9.01866e-20
-2.47414e-20
9.25965e-20
-2.20714e-20
9.41298e-20
-1.93867e-20
9.47109e-20
-1.67081e-20
9.4268e-20
-1.40738e-20
9.27172e-20
-1.1506e-20
8.99876e-20
-9.08483e-21
8.58848e-20
-6.82789e-21
8.03517e-20
-4.73707e-21
7.34554e-20
-3.10936e-21
6.46967e-20
-1.86541e-21
5.39339e-20
-6.41874e-22
4.15572e-20
-1.15331e-22
2.66972e-20
9.9939e-21
-3.22882e-22
-1.00139e-20
-1.15897e-21
-2.68934e-20
-2.60533e-21
-4.16893e-20
-4.57104e-21
-5.42052e-20
-7.01307e-21
-6.46697e-20
-9.84724e-21
-7.32559e-20
-1.29976e-20
-8.01045e-20
-1.63917e-20
-8.53745e-20
-1.99648e-20
-8.91914e-20
-2.3658e-20
-9.16727e-20
-2.7421e-20
-9.29247e-20
-3.12041e-20
-9.30446e-20
-3.49599e-20
-9.21191e-20
-3.86476e-20
-9.02379e-20
-4.22267e-20
-8.74736e-20
-4.56632e-20
-8.39036e-20
-4.89254e-20
-7.95966e-20
-5.19886e-20
-7.46261e-20
-5.48228e-20
-6.90525e-20
-5.74102e-20
-6.29459e-20
-5.97246e-20
-5.63626e-20
-6.17601e-20
-4.93728e-20
-6.34912e-20
-4.20307e-20
-6.49173e-20
-3.44031e-20
-6.60161e-20
-2.65422e-20
-6.67939e-20
-1.85124e-20
-6.72325e-20
-1.03648e-20
-6.73483e-20
-2.16599e-21
-6.71251e-20
6.02945e-21
-6.65832e-20
1.41578e-20
-6.5708e-20
2.21679e-20
-6.45256e-20
2.99966e-20
-6.30228e-20
3.75942e-20
-6.12302e-20
4.48996e-20
-5.91376e-20
5.18657e-20
-5.67831e-20
5.84342e-20
-5.41612e-20
6.45575e-20
-5.13139e-20
7.01801e-20
-4.8242e-20
7.52532e-20
-4.49912e-20
7.97192e-20
-4.15689e-20
8.35273e-20
-3.80272e-20
8.6616e-20
-3.43786e-20
8.89291e-20
-3.068e-20
9.03982e-20
-2.69537e-20
9.09596e-20
-2.32486e-20
9.05496e-20
-1.95883e-20
8.9072e-20
-1.60697e-20
8.64074e-20
-1.27044e-20
8.25607e-20
-9.57652e-21
7.73776e-20
-6.84035e-21
7.04714e-20
-4.35562e-21
6.21156e-20
-2.37338e-21
5.22037e-20
-1.32849e-21
3.9932e-20
-4.61345e-22
2.58088e-20
9.52905e-21
-3.79369e-22
-9.5932e-21
-1.51412e-21
-2.567e-20
-3.36716e-21
-3.97082e-20
-5.91931e-21
-5.1574e-20
-9.0675e-21
-6.14758e-20
-1.27012e-20
-6.9586e-20
-1.6738e-20
-7.60446e-20
-2.10808e-20
-8.10074e-20
-2.56533e-20
-8.45987e-20
-3.03722e-20
-8.69253e-20
-3.51847e-20
-8.80943e-20
-4.00122e-20
-8.81939e-20
-4.48129e-20
-8.73087e-20
-4.95123e-20
-8.55148e-20
-5.40861e-20
-8.28881e-20
-5.84634e-20
-7.94995e-20
-6.26368e-20
-7.54175e-20
-6.6533e-20
-7.0704e-20
-7.01609e-20
-6.5423e-20
-7.34467e-20
-5.96343e-20
-7.64144e-20
-5.33996e-20
-7.89918e-20
-4.67758e-20
-8.12156e-20
-3.98202e-20
-8.30162e-20
-3.25903e-20
-8.44369e-20
-2.51399e-20
-8.54074e-20
-1.75255e-20
-8.59839e-20
-9.8016e-21
-8.61017e-20
-2.0267e-21
-8.5831e-20
5.74587e-21
-8.51097e-20
1.34561e-20
-8.40116e-20
2.10521e-20
-8.24745e-20
2.84758e-20
-8.0575e-20
3.56783e-20
-7.82573e-20
4.26015e-20
-7.56069e-20
4.91983e-20
-7.25745e-20
5.54151e-20
-6.9249e-20
6.12108e-20
-6.559e-20
6.65288e-20
-6.16889e-20
7.13254e-20
-5.75169e-20
7.55451e-20
-5.31703e-20
7.91437e-20
-4.8631e-20
8.20615e-20
-4.39943e-20
8.42502e-20
-3.92582e-20
8.5644e-20
-3.45125e-20
8.61873e-20
-2.97713e-20
8.57932e-20
-2.51376e-20
8.4402e-20
-2.06147e-20
8.19633e-20
-1.63444e-20
7.82749e-20
-1.23996e-20
7.32329e-20
-8.73082e-21
6.70651e-20
-5.76547e-21
5.91607e-20
-3.43753e-21
4.92793e-20
-1.29989e-21
3.80521e-20
-2.81567e-22
2.45142e-20
9.23231e-21
-5.02289e-22
-9.05715e-21
-1.86598e-21
-2.41591e-20
-4.18183e-21
-3.72957e-20
-7.30464e-21
-4.83878e-20
-1.11485e-20
-5.75885e-20
-1.55969e-20
-6.51223e-20
-2.05164e-20
-7.11153e-20
-2.58098e-20
-7.57101e-20
-3.13668e-20
-7.90291e-20
-3.71129e-20
-8.11787e-20
-4.29494e-20
-8.22503e-20
-4.88206e-20
-8.23285e-20
-5.46349e-20
-8.14893e-20
-6.03514e-20
-7.98095e-20
-6.58842e-20
-7.73529e-20
-7.12103e-20
-7.41892e-20
-7.62516e-20
-7.03749e-20
-8.09996e-20
-6.59769e-20
-8.53756e-20
-6.10475e-20
-8.9385e-20
-5.56474e-20
-9.29585e-20
-4.98291e-20
-9.61089e-20
-4.36488e-20
-9.87776e-20
-3.71596e-20
-1.00981e-19
-3.04134e-20
-1.02669e-19
-2.34597e-20
-1.03866e-19
-1.63525e-20
-1.04531e-19
-9.13831e-21
-1.04699e-19
-1.87387e-21
-1.04338e-19
5.38913e-21
-1.03486e-19
1.25951e-20
-1.0212e-19
1.96935e-20
-1.00277e-19
2.66299e-20
-9.79413e-20
3.33538e-20
-9.51529e-20
3.98119e-20
-9.19074e-20
4.59625e-20
-8.82503e-20
5.17581e-20
-8.41899e-20
5.71574e-20
-7.9773e-20
6.21076e-20
-7.50166e-20
6.65737e-20
-6.9976e-20
7.0499e-20
-6.46823e-20
7.3848e-20
-5.91932e-20
7.65661e-20
-5.3552e-20
7.86095e-20
-4.78177e-20
7.99124e-20
-4.20497e-20
8.04196e-20
-3.63109e-20
8.00729e-20
-3.06582e-20
7.88071e-20
-2.52012e-20
7.6474e-20
-2.00352e-20
7.31006e-20
-1.51712e-20
6.86424e-20
-1.09238e-20
6.25656e-20
-7.08688e-21
5.51308e-20
-3.89758e-21
4.65354e-20
-2.06848e-21
3.56242e-20
-6.86132e-22
2.31293e-20
8.54465e-21
-5.90196e-22
-8.43166e-21
-2.24212e-21
-2.23883e-20
-5.0093e-21
-3.44751e-20
-8.73136e-21
-4.46279e-20
-1.32954e-20
-5.30337e-20
-1.85523e-20
-5.98975e-20
-2.43504e-20
-6.53426e-20
-3.05854e-20
-6.95103e-20
-3.71218e-20
-7.2519e-20
-4.38765e-20
-7.44621e-20
-5.07275e-20
-7.54224e-20
-5.76227e-20
-7.54833e-20
-6.44329e-20
-7.47088e-20
-7.11418e-20
-7.31653e-20
-7.76176e-20
-7.09096e-20
-8.3878e-20
-6.8011e-20
-8.97712e-20
-6.45172e-20
-9.53525e-20
-6.0489e-20
-1.00459e-19
-5.59697e-20
-1.05184e-19
-5.10243e-20
-1.09342e-19
-4.56905e-20
-1.13066e-19
-4.00342e-20
-1.16152e-19
-3.40836e-20
-1.1877e-19
-2.79061e-20
-1.207e-19
-2.15277e-20
-1.2214e-19
-1.50129e-20
-1.22863e-19
-8.38512e-21
-1.23101e-19
-1.71917e-21
-1.22615e-19
4.95945e-21
-1.21662e-19
1.15726e-20
-1.19995e-19
1.80957e-20
-1.17887e-19
2.44543e-20
-1.15088e-19
3.06269e-20
-1.11881e-19
3.65389e-20
-1.08015e-19
4.21762e-20
-1.03788e-19
4.74727e-20
-9.89636e-20
5.24168e-20
-9.38425e-20
5.6951e-20
-8.82091e-20
6.10415e-20
-8.23556e-20
6.46302e-20
-7.6088e-20
6.76977e-20
-6.96997e-20
7.01889e-20
-6.30298e-20
7.20656e-20
-5.63554e-20
7.32675e-20
-4.95455e-20
7.37489e-20
-4.28508e-20
7.3436e-20
-3.62053e-20
7.22605e-20
-2.98351e-20
7.02102e-20
-2.36833e-20
6.71427e-20
-1.80835e-20
6.2848e-20
-1.2899e-20
5.76099e-20
-8.50474e-21
5.10596e-20
-5.09287e-21
4.25578e-20
-2.01308e-21
3.29611e-20
-4.07453e-22
2.1345e-20
8.12972e-21
-6.47775e-22
-7.73022e-21
-2.65416e-21
-2.0349e-20
-5.86089e-21
-3.12265e-20
-1.02124e-20
-4.02981e-20
-1.54953e-20
-4.77945e-20
-2.15562e-20
-5.38595e-20
-2.82535e-20
-5.86887e-20
-3.54043e-20
-6.23741e-20
-4.29283e-20
-6.50331e-20
-5.06511e-20
-6.674e-20
-5.85307e-20
-6.75929e-20
-6.63854e-20
-6.76262e-20
-7.42235e-20
-6.69367e-20
-8.18498e-20
-6.55394e-20
-8.9318e-20
-6.35408e-20
-9.64064e-20
-6.0929e-20
-1.03224e-19
-5.78226e-20
-1.0952e-19
-5.41931e-20