/*--------------------------------*- C++ -*----------------------------------*\
| =========                 |                                                 |
| \\      /  F ield         | OpenFOAM: The Open Source CFD Toolbox           |
|  \\    /   O peration     | Version:  5.0                                   |
|   \\  /    A nd           | Web:      www.OpenFOAM.org                      |
|    \\/     M anipulation  |                                                 |
\*---------------------------------------------------------------------------*/
FoamFile
{
    version     2.0;
    format      ascii;
    class       volVectorField;
    location    "2.2";
    object      U;
}
// * * * * * * * * * * * * * * * * * * * * * * * * * * * * * * * * * * * * * //

dimensions      [0 1 -1 0 0 0 0];

internalField   nonuniform List<vector> 
25
(
(1 4.71834e-10 6.48464e-30)
(1 1.94735e-09 -3.23241e-23)
(1 -6.5197e-10 -3.23241e-23)
(1 -4.925e-09 -3.2324e-23)
(1 -5.55824e-10 6.72256e-30)
(0.92 2.20261e-09 -7.11298e-37)
(0.92 4.77186e-09 2.79794e-23)
(0.92 -6.34741e-10 -1.89524e-29)
(0.92 -1.62504e-08 -2.79794e-23)
(0.92 -2.28712e-09 -2.79794e-23)
(0.76 5.31201e-09 -2.73702e-23)
(0.76 5.30166e-09 3.44527e-29)
(0.76 1.59428e-09 2.79794e-23)
(0.76 -3.00859e-08 -5.59588e-23)
(0.76 -5.47587e-09 -5.59588e-23)
(0.52 6.84124e-09 5.48442e-23)
(0.52 4.15411e-09 2.79794e-23)
(0.52 2.8702e-09 -5.59588e-23)
(0.52 -3.51002e-08 -2.79789e-23)
(0.52 -6.8216e-09 5.59587e-23)
(0.2 3.01758e-09 3.93808e-23)
(0.2 1.47985e-09 1.99393e-23)
(0.2 1.27205e-09 -5.98181e-23)
(0.2 -1.49756e-08 -1.99393e-23)
(0.2 -2.88492e-09 3.98787e-23)
)
;

boundaryField
{
    top
    {
        type            fixedValue;
        value           uniform (0 0 0);
    }
    bottom
    {
        type            symmetryPlane;
    }
    inlet
    {
        type            pressureInletVelocity;
        value           nonuniform List<vector> 5((1 -0 -0) (0.92 -0 -0) (0.76 -0 -0) (0.52 -0 -0) (0.2 -0 -0));
    }
    outlet
    {
        type            inletOutlet;
        inletValue      nonuniform 0();
        value           nonuniform 0();
    }
    frontAndBack
    {
        type            empty;
    }
    procBoundary0to1
    {
        type            processor;
        value           nonuniform List<vector> 5((1 6.75587e-09 6.46481e-23) (0.92 1.98812e-08 -2.79794e-23) (0.76 3.1598e-08 2.79795e-23) (0.52 3.4244e-08 5.5959e-23) (0.2 1.43022e-08 3.98786e-23));
    }
}


// ************************************************************************* //
