/*--------------------------------*- C++ -*----------------------------------*\
| =========                 |                                                 |
| \\      /  F ield         | OpenFOAM: The Open Source CFD Toolbox           |
|  \\    /   O peration     | Version:  5.0                                   |
|   \\  /    A nd           | Web:      www.OpenFOAM.org                      |
|    \\/     M anipulation  |                                                 |
\*---------------------------------------------------------------------------*/
FoamFile
{
    version     2.0;
    format      ascii;
    class       surfaceScalarField;
    location    "428";
    object      phi;
}
// * * * * * * * * * * * * * * * * * * * * * * * * * * * * * * * * * * * * * //

dimensions      [0 3 -1 0 0 0 0];

internalField   nonuniform List<scalar> 
3052
(
6.00224e-25
-7.1873e-25
2.21048e-24
-1.61189e-24
4.67891e-24
-2.46994e-24
7.75756e-24
-3.08011e-24
1.13413e-23
-3.58518e-24
1.53582e-23
-4.0183e-24
1.97071e-23
-4.35022e-24
2.4313e-23
-4.60716e-24
2.91102e-23
-4.79843e-24
3.40319e-23
-4.92279e-24
3.9016e-23
-4.98515e-24
4.40071e-23
-4.992e-24
4.89532e-23
-4.94702e-24
5.38048e-23
-4.85247e-24
5.85167e-23
-4.71265e-24
6.30471e-23
-4.53115e-24
6.73573e-23
-4.31082e-24
7.14118e-23
-4.05512e-24
7.51785e-23
-3.76721e-24
7.86285e-23
-3.45048e-24
8.1736e-23
-3.10782e-24
8.44782e-23
-2.74253e-24
8.68357e-23
-2.35781e-24
8.87836e-23
-1.94816e-24
9.03216e-23
-1.53814e-24
9.14479e-23
-1.12638e-24
9.21319e-23
-6.84034e-25
9.236e-23
-2.2801e-25
9.21381e-23
2.21981e-25
9.14606e-23
6.77795e-25
9.03402e-23
1.12061e-24
8.8808e-23
1.53258e-24
8.68655e-23
1.94286e-24
8.45133e-23
2.35265e-24
8.17763e-23
2.73756e-24
7.8674e-23
3.10288e-24
7.52282e-23
3.44639e-24
7.14658e-23
3.7631e-24
6.74149e-23
4.05166e-24
6.31078e-23
4.30784e-24
5.85801e-23
4.52855e-24
5.38708e-23
4.71021e-24
4.90209e-23
4.85075e-24
4.40764e-23
4.94544e-24
3.9086e-23
4.99146e-24
3.41024e-23
4.98466e-24
2.9182e-23
4.92142e-24
2.4386e-23
4.79716e-24
1.97791e-23
4.60812e-24
1.54327e-23
4.34759e-24
1.14248e-23
4.00912e-24
7.84058e-24
3.58551e-24
4.77198e-24
3.06987e-24
2.33144e-24
2.44192e-24
6.97901e-25
1.63467e-24
6.98058e-25
5.96843e-25
-1.31725e-24
2.07205e-24
-3.09198e-24
4.25268e-24
-4.65523e-24
7.06835e-24
-5.90034e-24
1.03966e-23
-6.91787e-24
1.41142e-23
-7.74027e-24
1.81541e-23
-8.39421e-24
2.24432e-23
-8.9002e-24
2.69082e-23
-9.26709e-24
3.14887e-23
-9.50674e-24
3.61297e-23
-9.62939e-24
4.07775e-23
-9.64274e-24
4.53817e-23
-9.55408e-24
4.98978e-23
-9.37111e-24
5.42836e-23
-9.10087e-24
5.84997e-23
-8.74948e-24
6.25104e-23
-8.32348e-24
6.62828e-23
-7.82929e-24
6.97869e-23
-7.27281e-24
7.29951e-23
-6.66014e-24
7.58834e-23
-5.99724e-24
7.84301e-23
-5.29025e-24
8.06165e-23
-4.54497e-24
8.24351e-23
-3.7674e-24
8.38761e-23
-2.97943e-24
8.49205e-23
-2.17096e-24
8.55587e-23
-1.32219e-24
8.57764e-23
-4.45377e-25
8.55646e-23
4.34348e-25
8.49315e-23
1.31156e-24
8.38921e-23
2.16102e-24
8.24562e-23
2.96971e-24
8.06426e-23
3.75778e-24
7.84611e-23
4.53569e-24
7.59187e-23
5.28167e-24
7.30345e-23
5.98905e-24
6.98302e-23
6.65276e-24
6.63295e-23
7.26602e-24
6.25602e-23
7.82339e-24
5.85522e-23
8.31833e-24
5.43382e-23
8.74527e-24
4.99538e-23
9.09746e-24
4.54387e-23
9.36882e-24
4.08348e-23
9.55241e-24
3.61878e-23
9.64178e-24
3.15466e-23
9.62927e-24
2.69642e-23
9.50739e-24
2.24975e-23
9.26751e-24
1.8209e-23
8.90037e-24
1.4166e-23
8.39459e-24
1.04405e-23
7.73867e-24
7.1158e-24
6.91423e-24
4.29137e-24
5.89844e-24
2.07999e-24
4.6569e-24
5.91832e-25
3.12673e-24
1.29009e-24
4.54656e-25
-1.77348e-24
1.76423e-24
-4.40579e-24
3.75491e-24
-6.65007e-24
6.32908e-24
-8.47852e-24
9.37286e-24
-9.96556e-24
1.28056e-23
-1.11768e-23
1.65426e-23
-1.21348e-23
2.05098e-23
-1.28709e-23
2.46451e-23
-1.34057e-23
2.88902e-23
-1.3755e-23
3.31904e-23
-1.39325e-23
3.7496e-23
-1.3951e-23
4.17621e-23
-1.38227e-23
4.5946e-23
-1.35574e-23
5.00081e-23
-1.31651e-23
5.39126e-23
-1.26559e-23
5.76265e-23
-1.20391e-23
6.11189e-23
-1.13233e-23
6.43625e-23
-1.05177e-23
6.73322e-23
-9.6311e-24
7.00061e-23
-8.67216e-24
7.23646e-23
-7.64949e-24
7.43915e-23
-6.57252e-24
7.60755e-23
-5.45189e-24
7.7397e-23
-4.3012e-24
7.83428e-23
-3.11686e-24
7.89134e-23
-1.89265e-24
7.91069e-23
-6.38581e-25
7.89178e-23
6.23899e-25
7.83519e-23
1.87817e-24
7.74109e-23
3.1029e-24
7.60938e-23
4.28777e-24
7.44138e-23
5.43899e-24
7.23908e-23
6.56002e-24
7.00364e-23
7.63763e-24
6.73661e-23
8.6611e-24
6.43996e-23
9.62105e-24
6.1159e-23
1.05087e-23
5.76692e-23
1.13153e-23
5.39575e-23
1.20323e-23
5.00548e-23
1.26504e-23
4.5994e-23
1.31608e-23
4.18113e-23
1.35542e-23
3.75456e-23
1.3821e-23
3.32396e-23
1.39507e-23
2.8939e-23
1.39331e-23
2.46932e-23
1.37563e-23
2.05564e-23
1.34077e-23
1.65865e-23
1.28738e-23
1.28468e-23
1.21379e-23
9.41116e-24
1.1178e-23
6.35825e-24
9.97074e-24
3.77761e-24
8.48254e-24
1.77663e-24
6.6625e-24
4.77798e-25
4.42788e-24
1.76807e-24
4.02089e-25
-2.17671e-24
1.54237e-24
-5.54991e-24
3.3173e-24
-8.42858e-24
5.63718e-24
-1.08018e-23
8.4104e-24
-1.27421e-23
1.15419e-23
-1.43116e-23
1.49621e-23
-1.55582e-23
1.86029e-23
-1.65147e-23
2.24018e-23
-1.72075e-23
2.63037e-23
-1.76596e-23
3.02587e-23
-1.78901e-23
3.42203e-23
-1.79149e-23
3.81449e-23
-1.77495e-23
4.19938e-23
-1.74082e-23
4.57307e-23
-1.69039e-23
4.93223e-23
-1.62492e-23
5.27378e-23
-1.54561e-23
5.59495e-23
-1.45363e-23
5.89321e-23
-1.35015e-23
6.16627e-23
-1.23627e-23
6.41209e-23
-1.11312e-23
6.62893e-23
-9.81855e-24
6.81524e-23
-8.43605e-24
6.96958e-23
-6.99565e-24
7.09031e-23
-5.50866e-24
7.17652e-23
-3.97896e-24
7.2282e-23
-2.40933e-24
7.24557e-23
-8.11978e-25
7.22857e-23
7.94255e-25
7.17725e-23
2.392e-24
7.0914e-23
3.96214e-24
6.97102e-23
5.49239e-24
6.81704e-23
6.97982e-24
6.63105e-23
8.42103e-24
6.41451e-23
9.80435e-24
6.16895e-23
1.11181e-23
5.89616e-23
1.23505e-23
5.59814e-23
1.34907e-23
5.27717e-23
1.45269e-23
4.93581e-23
1.5448e-23
4.5768e-23
1.62427e-23
4.2032e-23
1.68991e-23
3.81837e-23
1.74049e-23
3.42594e-23
1.77479e-23
3.0298e-23
1.79147e-23
2.63425e-23
1.78913e-23
2.24392e-23
1.76625e-23
1.8638e-23
1.72119e-23
1.49953e-23
1.65196e-23
1.15728e-23
1.55636e-23
8.43494e-24
1.4319e-23
5.65741e-24
1.27515e-23
3.33148e-24
1.08119e-23
1.55006e-24
8.44623e-24
4.11655e-25
5.56981e-24
2.17988e-24
3.55026e-25
-2.53302e-24
1.34679e-24
-6.54472e-24
2.92852e-24
-1.00133e-23
5.00079e-24
-1.2877e-23
7.49017e-24
-1.52343e-23
1.03192e-23
-1.71435e-23
1.34184e-23
-1.866e-23
1.67239e-23
-1.98228e-23
2.0179e-23
-2.06651e-23
2.37321e-23
-2.12151e-23
2.73351e-23
-2.14953e-23
3.09453e-23
-2.15271e-23
3.45233e-23
-2.13294e-23
3.80326e-23
-2.09192e-23
4.14397e-23
-2.03125e-23
4.47141e-23
-1.9525e-23
4.78278e-23
-1.8571e-23
5.07554e-23
-1.7465e-23
5.34736e-23
-1.62206e-23
5.59619e-23
-1.48517e-23
5.82015e-23
-1.33715e-23
6.01763e-23
-1.17938e-23
6.18714e-23
-1.01315e-23
6.32737e-23
-8.39825e-24
6.4371e-23
-6.606e-24
6.5156e-23
-4.76391e-24
6.56272e-23
-2.88039e-24
6.57852e-23
-9.69737e-25
6.56297e-23
9.5014e-25
6.51612e-23
2.86104e-24
6.4379e-23
4.74498e-24
6.32844e-23
6.58774e-24
6.18844e-23
8.38067e-24
6.01916e-23
1.01148e-23
5.82192e-23
1.17779e-23
5.59817e-23
1.33569e-23
5.34953e-23
1.48383e-23
5.07788e-23
1.62086e-23
4.78527e-23
1.74546e-23
4.47402e-23
1.85623e-23
4.14668e-23
1.9518e-23
3.80606e-23
2.03073e-23
3.45518e-23
2.09158e-23
3.0974e-23
2.13279e-23
2.73635e-23
2.15276e-23
2.37596e-23
2.14976e-23
2.02055e-23
2.12191e-23
1.67493e-23
2.06707e-23
1.34416e-23
1.98299e-23
1.03383e-23
1.86697e-23
7.50547e-24
1.71546e-23
5.01429e-24
1.52454e-23
2.93411e-24
1.28945e-23
1.35177e-24
1.00327e-23
3.51375e-25
6.57156e-24
2.53138e-24
3.01863e-25
-2.83555e-24
1.17823e-24
-7.42383e-24
2.56386e-24
-1.14015e-23
4.39925e-24
-1.47148e-23
6.61144e-24
-1.74489e-23
9.13606e-24
-1.96704e-23
1.19095e-23
-2.14357e-23
1.48745e-23
-2.27899e-23
1.7979e-23
-2.37717e-23
2.11751e-23
-2.44131e-23
2.44192e-23
-2.47412e-23
2.76717e-23
-2.47813e-23
3.08961e-23
-2.45554e-23
3.40591e-23
-2.40835e-23
3.71304e-23
-2.33851e-23
4.0082e-23
-2.24778e-23
4.28888e-23
-2.13788e-23
4.55275e-23
-2.01046e-23
4.79773e-23
-1.86712e-23
5.02193e-23
-1.70944e-23
5.22369e-23
-1.53896e-23
5.4015e-23
-1.35723e-23
5.55406e-23
-1.16574e-23
5.68019e-23
-9.65975e-24
5.77893e-23
-7.59344e-24
5.84964e-23
-5.47097e-24
5.89214e-23
-3.30517e-24
5.90636e-23
-1.11174e-24
5.8923e-23
1.0911e-24
5.84998e-23
3.28474e-24
5.77943e-23
5.45101e-24
5.68086e-23
7.57405e-24
5.55489e-23
9.6411e-24
5.4025e-23
1.16396e-23
5.22483e-23
1.35556e-23
5.02321e-23
1.53741e-23
4.79913e-23
1.70803e-23
4.55426e-23
1.86586e-23
4.29049e-23
2.00937e-23
4.0099e-23
2.13697e-23
3.7148e-23
2.24706e-23
3.40771e-23
2.33799e-23
3.09144e-23
2.40804e-23
2.769e-23
2.45542e-23
2.44373e-23
2.47824e-23
2.11926e-23
2.47444e-23
1.79959e-23
2.4418e-23
1.48896e-23
2.37793e-23
1.19222e-23
2.27996e-23
9.14816e-24
2.14462e-23
6.62145e-24
1.96837e-23
4.40308e-24
1.74662e-23
2.56736e-24
1.4733e-23
1.18145e-24
1.14197e-23
3.09694e-25
7.44628e-24
2.84119e-24
2.62855e-25
-3.09941e-24
1.02039e-24
-8.18345e-24
2.22553e-24
-1.26088e-23
3.82765e-24
-1.6319e-23
5.76695e-24
-1.93901e-23
7.98669e-24
-2.1892e-23
1.04324e-23
-2.38832e-23
1.30532e-23
-2.54125e-23
1.58018e-23
-2.6522e-23
1.86346e-23
-2.72476e-23
2.15129e-23
-2.7621e-23
2.44003e-23
-2.76701e-23
2.72639e-23
-2.74202e-23
3.00737e-23
-2.68946e-23
3.28026e-23
-2.6115e-23
3.54253e-23
-2.51015e-23
3.79192e-23
-2.38736e-23
4.02637e-23
-2.24498e-23
4.24401e-23
-2.08482e-23
4.44316e-23
-1.90864e-23
4.62233e-23
-1.71818e-23
4.7802e-23
-1.51512e-23
4.91559e-23
-1.30115e-23
5.02751e-23
-1.07791e-23
5.11515e-23
-8.46985e-24
5.17797e-23
-6.0991e-24
5.21573e-23
-3.68265e-24
5.22836e-23
-1.23776e-24
5.21582e-23
1.21682e-24
5.17814e-23
3.66197e-24
5.1154e-23
6.07887e-24
5.02785e-23
8.45018e-24
4.91601e-23
1.07602e-23
4.78069e-23
1.29935e-23
4.6229e-23
1.51343e-23
4.4438e-23
1.71661e-23
4.24471e-23
1.90722e-23
4.02712e-23
2.08356e-23
3.79273e-23
2.24389e-23
3.54338e-23
2.38645e-23
3.28114e-23
2.50944e-23
3.00828e-23
2.61099e-23
2.7273e-23
2.68917e-23
2.44094e-23
2.74195e-23
2.15219e-23
2.76716e-23
1.86432e-23
2.76248e-23
1.58093e-23
2.72539e-23
1.30602e-23
2.65303e-23
1.04389e-23
2.54229e-23
7.99036e-24
2.38967e-23
5.76851e-24
2.19076e-23
3.83032e-24
1.94063e-23
2.22693e-24
1.63379e-23
1.01853e-24
1.26316e-23
2.62771e-25
8.20257e-24
3.10405e-24
2.25847e-25
-3.3256e-24
8.70368e-25
-8.82991e-24
1.90357e-24
-1.36438e-23
3.27869e-24
-1.76958e-23
4.94931e-24
-2.10623e-23
6.86708e-24
-2.38113e-23
8.98479e-24
-2.60024e-23
1.12584e-23
-2.76875e-23
1.36465e-23
-2.89116e-23
1.61111e-23
-2.97135e-23
1.86173e-23
-3.01284e-23
2.1133e-23
-3.0187e-23
2.36291e-23
-2.99174e-23
2.60792e-23
-2.93457e-23
2.8459e-23
-2.84957e-23
3.07465e-23
-2.73898e-23
3.29217e-23
-2.60495e-23
3.49665e-23
-2.44952e-23
3.68645e-23
-2.27467e-23
3.8601e-23
-2.08234e-23
4.01631e-23
-1.87441e-23
4.1539e-23
-1.65274e-23
4.27189e-23
-1.41915e-23
4.36942e-23
-1.17544e-23
4.44581e-23
-9.23379e-24
4.50062e-23
-6.64708e-24
4.53358e-23
-4.01208e-24
4.54458e-23
-1.34749e-24
4.53358e-23
1.32709e-24
4.50063e-23
3.99186e-24
4.44583e-23
6.62727e-24
4.36945e-23
9.21458e-24
4.27193e-23
1.1736e-23
4.15395e-23
1.4174e-23
4.01637e-23
1.65109e-23
3.86018e-23
1.87289e-23
3.68653e-23
2.08096e-23
3.49674e-23
2.27344e-23
3.29227e-23
2.44846e-23
3.07476e-23
2.60407e-23
2.84602e-23
2.7383e-23
2.60804e-23
2.84909e-23
2.36304e-23
2.93431e-23
2.11342e-23
2.9917e-23
1.86183e-23
3.01889e-23
1.6112e-23
3.01327e-23
1.36473e-23
2.97201e-23
1.12586e-23
2.89206e-23
8.984e-24
2.76992e-23
6.86667e-24
2.60157e-23
4.94906e-24
2.38269e-23
3.27591e-24
2.10811e-23
1.90087e-24
1.7715e-23
8.70597e-25
1.3662e-23
2.2687e-25
8.84873e-24
3.331e-24
1.87848e-25
-3.51424e-24
7.27742e-25
-9.37113e-24
1.59325e-24
-1.45106e-23
2.74828e-24
-1.88521e-23
4.15472e-24
-2.247e-23
5.77247e-24
-2.54303e-23
7.56264e-24
-2.77938e-23
9.48779e-24
-2.96138e-23
1.15125e-23
-3.09374e-23
1.36043e-23
-3.18063e-23
1.57333e-23
-3.22584e-23
1.78717e-23
-3.23263e-23
1.99943e-23
-3.20408e-23
2.20784e-23
-3.14306e-23
2.41032e-23
-3.05212e-23
2.60496e-23
-2.93369e-23
2.79006e-23
-2.7901e-23
2.96405e-23
-2.62356e-23
3.12554e-23
-2.4362e-23
3.27328e-23
-2.23011e-23
3.40616e-23
-2.00731e-23
3.52318e-23
-1.76979e-23
3.62352e-23
-1.5195e-23
3.70646e-23
-1.25839e-23
3.77145e-23
-9.88362e-24
3.81809e-23
-7.11335e-24
3.84614e-23
-4.2924e-24
3.85548e-23
-1.44068e-24
3.84607e-23
1.4214e-24
3.81796e-23
4.27331e-24
3.77127e-23
7.0946e-24
3.70623e-23
9.86541e-24
3.62324e-23
1.25664e-23
3.52285e-23
1.51784e-23
3.40578e-23
1.76823e-23
3.27287e-23
2.00587e-23
3.12509e-23
2.22881e-23
2.96357e-23
2.43505e-23
2.78955e-23
2.62256e-23
2.60444e-23
2.78928e-23
2.40978e-23
2.93306e-23
2.2073e-23
3.05168e-23
1.99888e-23
3.14283e-23
1.78662e-23
3.20407e-23
1.57279e-23
3.23284e-23
1.3599e-23
3.22628e-23
1.15071e-23
3.18132e-23
9.48256e-24
3.09465e-23
7.55801e-24
2.96251e-23
5.76746e-24
2.78076e-23
4.14951e-24
2.54461e-23
2.74534e-24
2.24866e-23
1.59093e-24
1.88702e-23
7.25873e-25
1.453e-23
1.86745e-25
9.38771e-24
3.51779e-24
1.52067e-25
-3.6664e-24
5.90026e-25
-9.81029e-24
1.29275e-24
-1.52144e-23
2.23243e-24
-1.97928e-23
3.37833e-24
-2.36169e-23
4.6987e-24
-2.67516e-23
6.16221e-24
-2.92581e-23
7.73818e-24
-3.11906e-23
9.39753e-24
-3.25976e-23
1.11134e-23
-3.3523e-23
1.28611e-23
-3.40068e-23
1.46173e-23
-3.40832e-23
1.63612e-23
-3.37853e-23
1.80742e-23
-3.3144e-23
1.97386e-23
-3.21861e-23
2.13388e-23
-3.09375e-23
2.28605e-23
-2.94231e-23
2.4291e-23
-2.76664e-23
2.56186e-23
-2.56899e-23
2.68331e-23
-2.35158e-23
2.79252e-23
-2.11654e-23
2.88871e-23
-1.86598e-23
2.97116e-23
-1.60196e-23
3.03932e-23
-1.32655e-23
3.09273e-23
-1.04176e-23
3.13106e-23
-7.49657e-24
3.15411e-23
-4.52274e-24
3.16177e-23
-1.51706e-24
3.154e-23
1.49936e-24
3.13083e-23
4.50525e-24
3.09239e-23
7.47943e-24
3.03887e-23
1.0401e-23
2.9706e-23
1.32494e-23
2.88805e-23
1.60044e-23
2.79178e-23
1.86455e-23
2.68248e-23
2.11523e-23
2.56096e-23
2.35039e-23
2.42814e-23
2.56794e-23
2.28504e-23
2.76573e-23
2.13282e-23
2.94157e-23
1.97277e-23
3.09318e-23
1.80631e-23
3.21822e-23
1.63502e-23
3.31421e-23
1.46064e-23
3.37854e-23
1.28502e-23
3.40854e-23
1.11029e-23
3.40111e-23
9.38763e-24
3.35294e-23
7.72883e-24
3.26063e-23
6.15336e-24
3.12016e-23
4.69108e-24
2.92709e-23
3.37232e-24
2.67659e-23
2.22673e-24
2.36331e-23
1.28873e-24
1.98096e-23
5.88318e-25
1.52297e-23
1.52845e-25
9.82512e-24
3.67069e-24
1.17496e-25
-3.78446e-24
4.56193e-25
-1.01496e-23
9.99804e-25
-1.57587e-23
1.72765e-24
-2.05213e-23
2.61638e-24
-2.45062e-23
3.64193e-24
-2.77777e-23
4.77983e-24
-3.03966e-23
6.00636e-24
-3.24177e-23
7.29896e-24
-3.38907e-23
8.63655e-24
-3.4861e-23
9.99965e-24
-3.53703e-23
1.13697e-23
-3.54536e-23
1.27309e-23
-3.51469e-23
1.40683e-23
-3.44818e-23
1.53681e-23
-3.34862e-23
1.66177e-23
-3.21874e-23
1.7806e-23
-3.06117e-23
1.8923e-23
-2.87836e-23
1.99597e-23
-2.67268e-23
2.0908e-23
-2.44642e-23
2.17607e-23
-2.20182e-23
2.25115e-23
-1.94106e-23
2.31551e-23
-1.66633e-23
2.36872e-23
-1.37974e-23
2.41041e-23
-1.08345e-23
2.44033e-23
-7.79565e-24
2.45831e-23
-4.70239e-24
2.46425e-23
-1.57632e-24
2.45814e-23
1.56075e-24
2.43999e-23
4.68692e-24
2.40992e-23
7.78046e-24
2.36808e-23
1.08197e-23
2.31473e-23
1.37833e-23
2.25022e-23
1.66498e-23
2.17501e-23
1.9398e-23
2.08963e-23
2.20065e-23
1.9947e-23
2.44536e-23
1.89094e-23
2.67175e-23
1.77916e-23
2.87756e-23
1.66027e-23
3.06051e-23
1.53526e-23
3.21824e-23
1.40526e-23
3.34828e-23
1.27152e-23
3.44802e-23
1.13541e-23
3.5147e-23
9.98456e-24
3.54556e-23
8.62208e-24
3.53743e-23
7.28519e-24
3.4867e-23
5.99354e-24
3.38986e-23
4.76853e-24
3.24272e-23
3.63219e-24
3.0408e-23
2.60784e-24
2.77909e-23
1.72145e-24
2.45202e-23
9.95808e-25
2.05353e-23
4.54244e-25
1.57736e-23
1.16762e-25
1.01619e-23
3.78746e-24
8.36274e-26
-3.86793e-24
3.24884e-25
-1.03913e-23
7.12406e-25
-1.61466e-23
1.23143e-24
-2.10406e-23
1.86563e-24
-2.51406e-23
2.59792e-24
-2.85102e-23
3.41105e-24
-3.12099e-23
4.2883e-24
-3.32952e-23
5.21345e-24
-3.4816e-23
6.17081e-24
-3.58186e-23
7.14709e-24
-3.63468e-23
8.12818e-24
-3.64349e-23
9.10354e-24
-3.61224e-23
1.0062e-23
-3.54404e-23
1.09936e-23
-3.44178e-23
1.18891e-23
-3.3083e-23
1.27406e-23
-3.14633e-23
1.35411e-23
-2.95841e-23
1.42839e-23
-2.74696e-23
1.49634e-23
-2.51436e-23
1.55742e-23
-2.2629e-23
1.61121e-23
-1.99484e-23
1.65731e-23
-1.71242e-23
1.69541e-23
-1.41783e-23
1.72526e-23
-1.11328e-23
1.74667e-23
-8.00961e-24
1.75952e-23
-4.83077e-24
1.76375e-23
-1.61841e-24
1.75933e-23
1.60517e-24
1.74627e-23
4.81768e-24
1.72466e-23
7.9968e-24
1.69462e-23
1.11204e-23
1.65634e-23
1.41663e-23
1.61007e-23
1.71128e-23
1.55612e-23
1.99378e-23
1.49489e-23
2.26191e-23
1.42681e-23
2.51347e-23
1.35242e-23
2.74617e-23
1.27228e-23
2.95773e-23
1.18705e-23
3.14578e-23
1.09745e-23
3.30788e-23
1.00427e-23
3.4415e-23
9.0842e-24
3.5439e-23
8.10914e-24
3.61225e-23
7.12859e-24
3.64366e-23
6.15302e-24
3.63502e-23
5.19688e-24
3.58235e-23
4.27331e-24
3.48225e-23
3.39741e-24
3.33035e-23
2.58599e-24
3.12197e-23
1.85647e-24
2.85208e-23
1.22471e-24
2.51522e-23
7.07747e-25
2.10532e-23
3.21972e-25
1.6158e-23
8.3251e-26
1.0402e-23
3.87073e-24
5.02852e-26
-3.91853e-24
1.95657e-25
-1.05365e-23
4.28835e-25
-1.63797e-23
7.40929e-25
-2.13526e-23
1.12229e-24
-2.55219e-23
1.56264e-24
-2.89505e-23
2.05164e-24
-3.16988e-23
2.57925e-24
-3.38227e-23
3.13682e-24
-3.53735e-23
3.71506e-24
-3.63968e-23
4.30025e-24
-3.69319e-23
4.8901e-24
-3.70247e-23
5.47882e-24
-3.6711e-23
6.0566e-24
-3.60181e-23
6.61668e-24
-3.49778e-23
7.15522e-24
-3.36215e-23
7.6675e-24
-3.19755e-23
8.14907e-24
-3.00655e-23
8.59595e-24
-2.79164e-23
9.00464e-24
-2.55522e-23
9.37202e-24
-2.29963e-23
9.69542e-24
-2.02717e-23
9.97249e-24
-1.74012e-23
1.02014e-23
-1.44071e-23
1.03806e-23
-1.13119e-23
1.0509e-23
-8.13791e-24
1.05859e-23
-4.90748e-24
1.06108e-23
-1.64313e-24
1.05835e-23
1.63255e-24
1.05044e-23
4.89699e-24
1.03737e-23
8.1276e-24
1.01923e-23
1.13019e-23
9.96134e-24
1.43975e-23
9.68226e-24
1.7392e-23
9.35704e-24
2.02632e-23
8.988e-24
2.29883e-23
8.57784e-24
2.5545e-23
8.12967e-24
2.79101e-23
7.64704e-24
3.00601e-23
7.13395e-24
3.1971e-23
6.59485e-24
3.3618e-23
6.0345e-24
3.49754e-23
5.45675e-24
3.60169e-23
4.86831e-24
3.6711e-23
4.27911e-24
3.70259e-23
3.69508e-24
3.69344e-23
3.11811e-24
3.64005e-23
2.56197e-24
3.53787e-23
2.03666e-24
3.38289e-23
1.55043e-24
3.1706e-23
1.11188e-24
2.89594e-23
7.32695e-25
2.55314e-23
4.23673e-25
2.13616e-23
1.94081e-25
1.63894e-23
5.00151e-26
1.05449e-23
3.92073e-24
1.7369e-26
-3.93552e-24
6.75106e-26
-1.05863e-23
1.47389e-25
-1.64591e-23
2.53818e-25
-2.14586e-23
3.83364e-25
-2.5651e-23
5.32595e-25
-2.90993e-23
6.9789e-25
-3.18637e-23
8.75367e-25
-3.39998e-23
1.06106e-24
-3.55588e-23
1.25369e-24
-3.6589e-23
1.45391e-24
-3.71318e-23
1.66168e-24
-3.72321e-23
1.86065e-24
-3.69097e-23
2.05053e-24
-3.62077e-23
2.23692e-24
-3.51639e-23
2.41734e-24
-3.38016e-23
2.58902e-24
-3.2147e-23
2.75037e-24
-3.02266e-23
2.90004e-24
-2.80658e-23
3.03684e-24
-2.56887e-23
3.15968e-24
-2.31189e-23
3.26767e-24
-2.03795e-23
3.36007e-24
-1.74934e-23
3.43625e-24
-1.44831e-23
3.49567e-24
-1.13712e-23
3.53798e-24
-8.18006e-24
3.56295e-24
-4.93231e-24
3.57045e-24
-1.6505e-24
3.56042e-24
1.64269e-24
3.53293e-24
4.92458e-24
3.48815e-24
8.17247e-24
3.42634e-24
1.13638e-23
3.34792e-24
1.4476e-23
3.25337e-24
1.74866e-23
3.1434e-24
2.03732e-23
3.01872e-24
2.31131e-23
2.88033e-24
2.56834e-23
2.72926e-24
2.80611e-23
2.56676e-24
3.02226e-23
2.39419e-24
3.21435e-23
2.21321e-24
3.37989e-23
2.02653e-24
3.5162e-23
1.83673e-24
3.62066e-23
1.63815e-24
3.69095e-23
1.43114e-24
3.72327e-23
1.23196e-24
3.71333e-23
1.04086e-24
3.65914e-23
8.57359e-25
3.5562e-23
6.81861e-25
3.40041e-23
5.18325e-25
3.18693e-23
3.72569e-25
2.91049e-23
2.46666e-25
2.5657e-23
1.42356e-25
2.14662e-23
6.35902e-26
1.6466e-23
1.60485e-26
1.05933e-23
3.93676e-24
-1.55188e-26
-3.92008e-24
-6.01681e-26
-1.05408e-23
-1.33306e-25
-1.63852e-23
-2.32274e-25
-2.13589e-23
-3.54037e-25
-2.55285e-23
-4.9544e-25
-2.89571e-23
-6.53131e-25
-3.17053e-23
-8.23327e-25
-3.38289e-23
-1.00219e-24
-3.53793e-23
-1.1884e-24
-3.64022e-23
-1.38265e-24
-3.6937e-23
-1.58495e-24
-3.70293e-23
-1.77893e-24
-3.67152e-23
-1.96437e-24
-3.60218e-23
-2.14688e-24
-3.4981e-23
-2.32391e-24
-3.36242e-23
-2.49277e-24
-3.19777e-23
-2.65178e-24
-3.00673e-23
-2.79964e-24
-2.79176e-23
-2.93514e-24
-2.55529e-23
-3.05717e-24
-2.29966e-23
-3.16484e-24
-2.02716e-23
-3.2574e-24
-1.74006e-23
-3.3342e-24
-1.44061e-23
-3.39474e-24
-1.13104e-23
-3.43862e-24
-8.13601e-24
-3.46559e-24
-4.90519e-24
-3.47548e-24
-1.6405e-24
-3.46823e-24
1.63554e-24
-3.44389e-24
4.90029e-24
-3.4026e-24
8.13121e-24
-3.34456e-24
1.13058e-23
-3.27013e-24
1.44015e-23
-3.17979e-24
1.73963e-23
-3.0742e-24
2.02675e-23
-2.95407e-24
2.29928e-23
-2.82029e-24
2.55495e-23
-2.67388e-24
2.79145e-23
-2.51605e-24
3.00645e-23
-2.34813e-24
3.19754e-23
-2.17169e-24
3.36222e-23
-1.98946e-24
3.49795e-23
-1.80396e-24
3.60207e-23
-1.60953e-24
3.67146e-23
-1.40639e-24
3.70291e-23
-1.21082e-24
3.69373e-23
-1.02304e-24
3.64032e-23
-8.42647e-25
3.53811e-23
-6.69892e-25
3.38308e-23
-5.08689e-25
3.17075e-23
-3.65209e-25
2.89607e-23
-2.41747e-25
2.5533e-23
-1.39059e-25
2.13623e-23
-6.1744e-26
1.63899e-23
-1.55583e-26
1.05454e-23
3.92116e-24
-4.87415e-26
-3.87074e-24
-1.88534e-25
-1.03999e-23
-4.14983e-25
-1.61576e-23
-7.19813e-25
-2.10529e-23
-1.09364e-24
-2.51536e-23
-1.52652e-24
-2.85232e-23
-2.00819e-24
-3.12226e-23
-2.52874e-24
-3.33073e-23
-3.07968e-24
-3.48275e-23
-3.65169e-24
-3.58293e-23
-4.23107e-24
-3.63568e-23
-4.8157e-24
-3.64438e-23
-5.39977e-24
-3.61304e-23
-5.97333e-24
-3.54475e-23
-6.52967e-24
-3.4424e-23
-7.06498e-24
-3.30882e-23
-7.57453e-24
-3.14676e-23
-8.05384e-24
-2.95874e-23
-8.49897e-24
-2.7472e-23
-8.90635e-24
-2.51451e-23
-9.27294e-24
-2.26296e-23
-9.59602e-24
-1.99481e-23
-9.87331e-24
-1.7123e-23
-1.01028e-23
-1.41763e-23
-1.02831e-23
-1.11299e-23
-1.0413e-23
-8.00593e-24
-1.04918e-23
-4.82626e-24
-1.0519e-23
-1.6132e-24
-1.04945e-23
1.6111e-24
-1.04183e-23
4.82415e-24
-1.0291e-23
8.00385e-24
-1.01132e-23
1.11279e-23
-9.88614e-24
1.41743e-23
-9.61114e-24
1.71211e-23
-9.29022e-24
1.99464e-23
-8.92551e-24
2.26279e-23
-8.51984e-24
2.51435e-23
-8.07617e-24
2.74705e-23
-7.5981e-24
2.95861e-23
-7.08946e-24
3.14663e-23
-6.55479e-24
3.30871e-23
-5.99871e-24
3.44229e-23
-5.4251e-24
3.54465e-23
-4.84052e-24
3.61294e-23
-4.25508e-24
3.6443e-23
-3.67464e-24
3.63561e-23
-3.10099e-24
3.58287e-23
-2.54754e-24
3.48268e-23
-2.02497e-24
3.33074e-23
-1.54175e-24
3.12234e-23
-1.10513e-24
2.85233e-23
-7.2694e-25
2.51538e-23
-4.20244e-25
2.10553e-23
-1.93146e-25
1.61601e-23
-5.03866e-26
1.0403e-23
3.87072e-24
-8.18802e-26
-3.78869e-24
-3.17842e-25
-1.01624e-23
-6.99072e-25
-1.57749e-23
-1.21129e-24
-2.05392e-23
-1.83844e-24
-2.4525e-23
-2.56377e-24
-2.77965e-23
-3.37019e-24
-3.04149e-23
-4.24103e-24
-3.24352e-23
-5.16003e-24
-3.39072e-23
-6.11173e-24
-3.48764e-23
-7.0828e-24
-3.53846e-23
-8.05908e-24
-3.54665e-23
-9.03002e-24
-3.51585e-23
-9.98465e-24
-3.4492e-23
-1.09127e-23
-3.34951e-23
-1.18052e-23
-3.21949e-23
-1.26542e-23
-3.06179e-23
-1.34526e-23
-2.87884e-23
-1.41938e-23
-2.67303e-23
-1.48721e-23
-2.44663e-23
-1.54822e-23
-2.2019e-23
-1.60198e-23
-1.94101e-23
-1.64808e-23
-1.66615e-23
-1.68624e-23
-1.37943e-23
-1.71619e-23
-1.08302e-23
-1.73775e-23
-7.79013e-24
-1.75077e-23
-4.69588e-24
-1.75521e-23
-1.56868e-24
-1.75103e-23
1.56926e-24
-1.73826e-23
4.69649e-24
-1.71696e-23
7.79074e-24
-1.68727e-23
1.08308e-23
-1.64934e-23
1.37949e-23
-1.60345e-23
1.6662e-23
-1.5499e-23
1.94105e-23
-1.48908e-23
2.20193e-23
-1.42142e-23
2.44665e-23
-1.34745e-23
2.67303e-23
-1.26773e-23
2.87883e-23
-1.18292e-23
3.06176e-23
-1.09373e-23
3.21944e-23
-1.00095e-23
3.34944e-23
-9.05484e-24
3.4491e-23
-8.08355e-24
3.51572e-23
-7.10647e-24
3.5465e-23
-6.13404e-24
3.53827e-23
-5.18081e-24
3.48744e-23
-4.26049e-24
3.39054e-23
-3.38703e-24
3.24328e-23
-2.57668e-24
3.04119e-23
-1.84974e-24
2.7795e-23
-1.22141e-24
2.45243e-23
-7.05192e-25
2.05372e-23
-3.19234e-25
1.57745e-23
-8.19392e-26
1.01635e-23
3.7887e-24
-1.16212e-25
-3.67167e-24
-4.49533e-25
-9.82724e-24
-9.87367e-25
-1.52352e-23
-1.70902e-24
-1.98157e-23
-2.5916e-24
-2.36407e-23
-3.61096e-24
-2.67754e-23
-4.74298e-24
-2.92812e-23
-5.96397e-24
-3.12127e-23
-7.25134e-24
-3.26184e-23
-8.584e-24
-3.35423e-23
-9.94256e-24
-3.40247e-23
-1.13083e-23
-3.40995e-23
-1.26658e-23
-3.37999e-23
-1.39997e-23
-3.3157e-23
-1.52964e-23
-3.21974e-23
-1.65434e-23
-3.0947e-23
-1.77295e-23
-2.94309e-23
-1.88446e-23
-2.76724e-23
-1.98798e-23
-2.56943e-23
-2.0827e-23
-2.35184e-23
-2.1679e-23
-2.11664e-23
-2.24296e-23
-1.8659e-23
-2.30733e-23
-1.60173e-23
-2.36058e-23
-1.32615e-23
-2.40235e-23
-1.04122e-23
-2.43239e-23
-7.48953e-24
-2.45053e-23
-4.51439e-24
-2.45667e-23
-1.50718e-24
-2.45078e-23
1.51034e-24
-2.43289e-23
4.51751e-24
-2.40308e-23
7.49254e-24
-2.36154e-23
1.04152e-23
-2.30851e-23
1.32643e-23
-2.24435e-23
1.602e-23
-2.16949e-23
1.86614e-23
-2.08447e-23
2.11686e-23
-1.98991e-23
2.35202e-23
-1.88653e-23
2.56959e-23
-1.77512e-23
2.76735e-23
-1.65661e-23
2.94317e-23
-1.53197e-23
3.09471e-23
-1.40233e-23
3.2197e-23
-1.26893e-23
3.31559e-23
-1.13316e-23
3.37984e-23
-9.965e-24
3.40972e-23
-8.60564e-24
3.40221e-23
-7.27149e-24
3.35389e-23
-5.98166e-24
3.26142e-23
-4.75882e-24
3.12085e-23
-3.62617e-24
2.92776e-23
-2.60292e-24
2.67703e-23
-1.7154e-24
2.36351e-23
-9.92579e-25
1.98133e-23
-4.54836e-25
1.52335e-23
-1.18332e-25
9.82665e-24
3.67029e-24
-1.50642e-25
-3.5206e-24
-5.83865e-25
-9.39171e-24
-1.28135e-24
-1.45354e-23
-2.21587e-24
-1.88791e-23
-3.35673e-24
-2.24977e-23
-4.67225e-24
-2.54579e-23
-6.13109e-24
-2.78204e-23
-7.70254e-24
-2.96393e-23
-9.35773e-24
-3.09614e-23
-1.10696e-23
-3.18288e-23
-1.28137e-23
-3.2279e-23
-1.45665e-23
-3.23452e-23
-1.63073e-23
-3.20577e-23
-1.80173e-23
-3.14457e-23
-1.96793e-23
-3.05341e-23
-2.12772e-23
-2.93481e-23
-2.27972e-23
-2.79099e-23
-2.42259e-23
-2.62428e-23
-2.55524e-23
-2.43669e-23
-2.67657e-23
-2.23044e-23
-2.78575e-23
-2.0074e-23
-2.88188e-23
-1.76972e-23
-2.96437e-23
-1.5192e-23
-3.03254e-23
-1.25794e-23
-3.08604e-23
-9.87682e-24
-3.12445e-23
-7.10526e-24
-3.14766e-23
-4.28213e-24
-3.15543e-23
-1.42936e-24
-3.14788e-23
1.43473e-24
-3.12488e-23
4.28744e-24
-3.0867e-23
7.11052e-24
-3.0334e-23
9.88185e-24
-2.96544e-23
1.25843e-23
-2.88313e-23
1.51965e-23
-2.7872e-23
1.77015e-23
-2.67817e-23
2.00777e-23
-2.557e-23
2.23078e-23
-2.42445e-23
2.43696e-23
-2.2817e-23
2.62451e-23
-2.12977e-23
2.79113e-23
-1.97006e-23
2.93489e-23
-1.80387e-23
3.05339e-23
-1.63289e-23
3.14449e-23
-1.45877e-23
3.20558e-23
-1.28345e-23
3.23426e-23
-1.10891e-23
3.22751e-23
-9.3761e-24
3.18243e-23
-7.72004e-24
3.09564e-23
-6.14662e-24
2.96333e-23
-4.68357e-24
2.78128e-23
-3.3668e-24
2.54516e-23
-2.22647e-24
2.24929e-23
-1.28768e-24
1.88722e-23
-5.84773e-25
1.45302e-23
-1.50446e-25
9.38981e-24
3.51973e-24
-1.8689e-25
-3.33273e-24
-7.22359e-25
-8.85376e-24
-1.5836e-24
-1.36717e-23
-2.73462e-24
-1.77255e-23
-4.1373e-24
-2.10926e-23
-5.75177e-24
-2.38411e-23
-7.5387e-24
-2.60312e-23
-9.46081e-24
-2.77151e-23
-1.14826e-23
-2.89375e-23
-1.35717e-23
-2.97378e-23
-1.5698e-23
-3.01509e-23
-1.7834e-23
-3.02075e-23
-1.99542e-23
-2.99358e-23
-2.20363e-23
-2.93621e-23
-2.40591e-23
-2.85099e-23
-2.6004e-23
-2.74019e-23
-2.78533e-23
-2.60594e-23
-2.95922e-23
-2.45029e-23
-3.1206e-23
-2.27522e-23
-3.26828e-23
-2.08267e-23
-3.40109e-23
-1.87452e-23
-3.51811e-23
-1.65263e-23
-3.61843e-23
-1.41882e-23
-3.70141e-23
-1.17491e-23
-3.76642e-23
-9.22634e-24
-3.81315e-23
-6.6378e-24
-3.84127e-23
-4.00076e-24
-3.85075e-23
-1.33458e-24
-3.84146e-23
1.34182e-24
-3.81353e-23
4.0079e-24
-3.76699e-23
6.64485e-24
-3.70215e-23
9.23311e-24
-3.61934e-23
1.17557e-23
-3.51918e-23
1.41943e-23
-3.40231e-23
1.65321e-23
-3.26965e-23
1.87502e-23
-3.1221e-23
2.08314e-23
-2.96082e-23
2.27559e-23
-2.78703e-23
2.45061e-23
-2.60217e-23
2.60614e-23
-2.40774e-23
2.74033e-23
-2.20549e-23
2.851e-23
-1.99729e-23
2.93614e-23
-1.78525e-23
2.99337e-23
-1.5716e-23
3.02044e-23
-1.35892e-23
3.01465e-23
-1.14993e-23
2.97326e-23
-9.47523e-24
2.89304e-23
-7.5517e-24
2.77077e-23
-5.76519e-24
2.60242e-23
-4.14818e-24
2.38325e-23
-2.73963e-24
2.10822e-23
-1.58812e-24
1.7719e-23
-7.28436e-25
1.36669e-23
-1.90142e-25
8.85056e-24
3.32948e-24
-2.24483e-25
-3.10757e-24
-8.66127e-25
-8.20922e-24
-1.89593e-24
-1.2639e-23
-3.26901e-24
-1.63497e-23
-4.9378e-24
-1.94211e-23
-6.8538e-24
-2.19225e-23
-8.96999e-24
-2.39125e-23
-1.12423e-23
-2.54404e-23
-1.36289e-23
-2.65486e-23
-1.60921e-23
-2.72724e-23
-1.85967e-23
-2.76442e-23
-2.11112e-23
-2.7691e-23
-2.36058e-23
-2.74395e-23
-2.60548e-23
-2.69114e-23
-2.84331e-23
-2.613e-23
-3.07199e-23
-2.51137e-23
-3.28938e-23
-2.38842e-23
-3.49382e-23
-2.24573e-23
-3.68351e-23
-2.08542e-23
-3.85716e-23
-1.90892e-23
-4.01327e-23
-1.71832e-23
-4.1509e-23
-1.51493e-23
-4.26881e-23
-1.30085e-23
-4.36641e-23
-1.07727e-23
-4.44276e-23
-8.46256e-24
-4.49767e-23
-6.08845e-24
-4.5306e-23
-3.67135e-24
-4.54175e-23
-1.22312e-24
-4.53075e-23
1.23171e-24
-4.49797e-23
3.67994e-24
-4.44319e-23
6.09668e-24
-4.367e-23
8.47077e-24
-4.26951e-23
1.07802e-23
-4.15175e-23
1.3016e-23
-4.01421e-23
1.51559e-23
-3.85824e-23
1.71897e-23
-3.68464e-23
1.90943e-23
-3.49509e-23
2.08592e-23
-3.29069e-23
2.24608e-23
-3.07341e-23
2.38873e-23
-2.84473e-23
2.5115e-23
-2.60697e-23
2.61309e-23
-2.36203e-23
2.69102e-23
-2.11262e-23
2.74378e-23
-1.86111e-23
2.76874e-23
-1.61064e-23
2.76397e-23
-1.36417e-23
2.72658e-23
-1.12555e-23
2.6542e-23
-8.98207e-24
2.54319e-23
-6.86248e-24
2.39023e-23
-4.94511e-24
2.19127e-23
-3.27852e-24
1.94132e-23
-1.90248e-24
1.63401e-23
-8.66657e-25
1.26299e-23
-2.23021e-25
8.20421e-24
3.10633e-24
-2.63471e-25
-2.84299e-24
-1.01702e-24
-7.45259e-24
-2.22169e-24
-1.14312e-23
-3.82307e-24
-1.47452e-23
-5.76244e-24
-1.74788e-23
-7.98282e-24
-1.96992e-23
-1.04292e-23
-2.14634e-23
-1.305e-23
-2.2817e-23
-1.57987e-23
-2.37973e-23
-1.86316e-23
-2.44371e-23
-2.15098e-23
-2.47637e-23
-2.43966e-23
-2.4802e-23
-2.72602e-23
-2.45739e-23
-3.00695e-23
-2.41003e-23
-3.27983e-23
-2.33995e-23
-3.54202e-23
-2.24902e-23
-3.79142e-23
-2.13887e-23
-4.02578e-23