/*--------------------------------*- C++ -*----------------------------------*\
| =========                 |                                                 |
| \\      /  F ield         | OpenFOAM: The Open Source CFD Toolbox           |
|  \\    /   O peration     | Version:  5.0                                   |
|   \\  /    A nd           | Web:      www.OpenFOAM.org                      |
|    \\/     M anipulation  |                                                 |
\*---------------------------------------------------------------------------*/
FoamFile
{
    version     2.0;
    format      ascii;
    class       volVectorField;
    location    "3.6";
    object      U;
}
// * * * * * * * * * * * * * * * * * * * * * * * * * * * * * * * * * * * * * //

dimensions      [0 1 -1 0 0 0 0];

internalField   nonuniform List<vector> 
25
(
(1 8.38939e-10 2.68636e-30)
(1 1.25085e-09 -3.2324e-23)
(1 -1.27778e-09 -3.23241e-23)
(1 -6.25186e-09 -3.2324e-23)
(1 -1.4186e-09 4.49044e-30)
(0.92 2.8913e-09 -7.11298e-37)
(0.92 3.02227e-09 2.79794e-23)
(0.92 -3.33496e-09 -1.0588e-29)
(0.92 -1.89637e-08 -2.79794e-23)
(0.92 -4.58402e-09 -2.79794e-23)
(0.76 5.54951e-09 -2.73702e-23)
(0.76 2.89412e-09 2.22289e-29)
(0.76 -4.25267e-09 2.79794e-23)
(0.76 -3.12752e-08 -5.59588e-23)
(0.76 -8.14278e-09 -5.59588e-23)
(0.52 6.57743e-09 5.48442e-23)
(0.52 1.53792e-09 2.79794e-23)
(0.52 -3.94985e-09 -5.59588e-23)
(0.52 -3.41624e-08 -2.7979e-23)
(0.52 -8.86123e-09 5.59587e-23)
(0.2 2.83821e-09 3.93808e-23)
(0.2 3.68459e-10 1.99394e-23)
(0.2 -1.61782e-09 -5.98181e-23)
(0.2 -1.43516e-08 -1.99393e-23)
(0.2 -3.64625e-09 3.98787e-23)
)
;

boundaryField
{
    top
    {
        type            fixedValue;
        value           uniform (0 0 0);
    }
    bottom
    {
        type            symmetryPlane;
    }
    inlet
    {
        type            pressureInletVelocity;
        value           nonuniform List<vector> 5((1 -0 -0) (0.92 -0 -0) (0.76 -0 -0) (0.52 -0 -0) (0.2 -0 -0));
    }
    outlet
    {
        type            inletOutlet;
        inletValue      nonuniform 0();
        value           nonuniform 0();
    }
    frontAndBack
    {
        type            empty;
    }
    procBoundary0to1
    {
        type            processor;
        value           nonuniform List<vector> 5((1 5.99186e-09 6.46481e-23) (0.92 1.74901e-08 -2.79794e-23) (0.76 2.72467e-08 2.79795e-23) (0.52 2.89957e-08 5.5959e-23) (0.2 1.21304e-08 3.98786e-23));
    }
}


// ************************************************************************* //
