/*--------------------------------*- C++ -*----------------------------------*\
| =========                 |                                                 |
| \\      /  F ield         | OpenFOAM: The Open Source CFD Toolbox           |
|  \\    /   O peration     | Version:  5.0                                   |
|   \\  /    A nd           | Web:      www.OpenFOAM.org                      |
|    \\/     M anipulation  |                                                 |
\*---------------------------------------------------------------------------*/
FoamFile
{
    version     2.0;
    format      ascii;
    class       volScalarField;
    location    "0.5";
    object      p;
}
// * * * * * * * * * * * * * * * * * * * * * * * * * * * * * * * * * * * * * //

dimensions      [0 2 -2 0 0 0 0];

internalField   nonuniform List<scalar> 
50
(
-0.0502043
-0.000277753
2.39788e-06
0.000459522
0.100948
-0.0309925
-4.54876e-05
0.000232642
-0.000429228
0.0610874
-0.0188991
5.82268e-05
0.00025214
-0.000699408
0.0365998
-0.0113179
3.84329e-05
0.000153886
-0.000498179
0.0218262
-0.00388987
-8.70705e-06
3.348e-05
-0.000190989
0.00747806
0.00385293
-5.55729e-05
-8.79938e-05
0.000121015
-0.00750227
0.011281
-0.000102664
-0.000208397
0.000428335
-0.0218504
0.018862
-0.000122372
-0.000306656
0.000629776
-0.0366236
0.0309551
-1.82385e-05
-0.000287159
0.000360537
-0.0611099
0.0501658
0.000215076
-5.68052e-05
-0.000525844
-0.100969
)
;

boundaryField
{
    top
    {
        type            zeroGradient;
    }
    bottom
    {
        type            zeroGradient;
    }
    inlet
    {
        type            fixedValue;
        value           nonuniform 0();
    }
    outlet
    {
        type            fixedValue;
        value           uniform 0;
    }
    frontAndBack
    {
        type            empty;
    }
    procBoundary1to0
    {
        type            processor;
        value           nonuniform List<scalar> 10(0.0501695 0.0309568 0.018863 0.0112817 0.00385326 -0.00389001 -0.0113184 -0.0188998 -0.0309939 -0.0502075);
    }
}


// ************************************************************************* //
