/*--------------------------------*- C++ -*----------------------------------*\
| =========                 |                                                 |
| \\      /  F ield         | OpenFOAM: The Open Source CFD Toolbox           |
|  \\    /   O peration     | Version:  5.0                                   |
|   \\  /    A nd           | Web:      www.OpenFOAM.org                      |
|    \\/     M anipulation  |                                                 |
\*---------------------------------------------------------------------------*/
FoamFile
{
    version     2.0;
    format      ascii;
    class       surfaceScalarField;
    location    "0.5";
    object      phi;
}
// * * * * * * * * * * * * * * * * * * * * * * * * * * * * * * * * * * * * * //

dimensions      [0 3 -1 0 0 0 0];

internalField   nonuniform List<scalar> 
85
(
1.24024e-06
4.13998e-08
1.24354e-06
-3.30039e-09
1.23827e-06
5.27289e-09
1.23907e-06
-8.00996e-10
-9.103e-08
2.07838e-06
7.28853e-08
2.07447e-06
6.10163e-10
2.06741e-06
1.23325e-08
2.08783e-06
-2.123e-08
-1.66554e-07
2.91367e-06
9.67772e-08
2.90867e-06
5.60745e-09
2.90249e-06
1.85167e-08
2.9243e-06
-4.30398e-08
-2.25795e-07
3.74822e-06
1.1218e-07
3.7446e-06
9.21996e-09
3.74049e-06
2.26272e-08
3.7558e-06
-5.83477e-08
-2.6439e-07
4.58273e-06
1.17541e-07
4.58144e-06
1.05059e-08
4.58e-06
2.40632e-08
4.58543e-06
-6.37742e-08
-2.7786e-07
5.41728e-06
1.12181e-07
5.41857e-06
9.21783e-09
5.42e-06
2.26311e-08
5.41457e-06
-5.83459e-08
-2.64392e-07
6.25179e-06
9.67799e-08
6.25541e-06
5.60363e-09
6.25951e-06
1.8523e-08
6.24421e-06
-4.30367e-08
-2.258e-07
7.08633e-06
7.2889e-08
7.09133e-06
6.05504e-10
7.09752e-06
1.23392e-08
7.07571e-06
-2.12265e-08
-1.66561e-07
7.92163e-06
4.14042e-08
7.92554e-06
-3.30443e-09
7.9326e-06
5.27737e-09
7.91217e-06
-7.97081e-10
-9.10383e-08
8.75976e-06
8.75646e-06
8.76174e-06
8.76094e-06
)
;

boundaryField
{
    top
    {
        type            calculated;
        value           uniform 0;
    }
    bottom
    {
        type            calculated;
        value           uniform 0;
    }
    inlet
    {
        type            calculated;
        value           nonuniform 0();
    }
    outlet
    {
        type            calculated;
        value           nonuniform List<scalar> 10(1.3301e-06 2.16336e-06 2.98354e-06 3.79439e-06 4.5989e-06 5.40111e-06 6.20561e-06 7.01647e-06 7.83665e-06 8.6699e-06);
    }
    frontAndBack
    {
        type            empty;
        value           nonuniform 0();
    }
    procBoundary1to0
    {
        type            processor;
        value           nonuniform List<scalar> 10(-1.28164e-06 -2.10986e-06 -2.93756e-06 -3.76362e-06 -4.58809e-06 -5.41192e-06 -6.23639e-06 -7.06244e-06 -7.89014e-06 -8.71836e-06);
    }
}


// ************************************************************************* //
