/*--------------------------------*- C++ -*----------------------------------*\
| =========                 |                                                 |
| \\      /  F ield         | OpenFOAM: The Open Source CFD Toolbox           |
|  \\    /   O peration     | Version:  5.0                                   |
|   \\  /    A nd           | Web:      www.OpenFOAM.org                      |
|    \\/     M anipulation  |                                                 |
\*---------------------------------------------------------------------------*/
FoamFile
{
    version     2.0;
    format      ascii;
    class       surfaceScalarField;
    location    "365";
    object      phi;
}
// * * * * * * * * * * * * * * * * * * * * * * * * * * * * * * * * * * * * * //

dimensions      [0 3 -1 0 0 0 0];

internalField   nonuniform List<scalar> 
19660
(
1.8322e-08
-1.68034e-09
-1.65386e-08
2.14868e-08
-2.06243e-09
-1.10251e-09
2.25988e-08
-1.88309e-09
7.70928e-10
2.25582e-08
-1.56311e-09
1.60361e-09
2.15555e-08
-1.21425e-09
2.21685e-09
1.98985e-08
-8.15878e-10
2.47276e-09
1.76533e-08
-3.22462e-10
2.56751e-09
1.47175e-08
2.53277e-10
2.68241e-09
1.10352e-08
7.99174e-10
2.88305e-09
6.75328e-09
1.15205e-09
3.12978e-09
2.38348e-09
9.29927e-10
3.43978e-09
-9.4118e-10
-6.07915e-10
3.93247e-09
-1.80974e-09
-3.47535e-09
4.3438e-09
-5.53828e-09
3.72849e-09
1.86942e-08
-1.19071e-09
-1.91839e-08
2.29295e-08
-2.08176e-09
-4.21622e-09
2.52742e-08
-2.33071e-09
-1.8973e-09
2.6554e-08
-2.34437e-09
-4.98725e-10
2.68424e-08
-2.16561e-09
6.62725e-10
2.65224e-08
-1.85943e-09
1.3634e-09
2.58126e-08
-1.44841e-09
1.83552e-09
2.47156e-08
-9.42731e-10
2.2928e-09
2.31072e-08
-3.82889e-10
2.7904e-09
2.08391e-08
1.10436e-10
3.30953e-09
1.7695e-08
2.12524e-10
3.86136e-09
1.31122e-08
-4.3196e-10
4.40671e-09
6.76159e-09
-2.24994e-09
5.12507e-09
-4.02051e-09
5.24375e-09
1.88687e-08
-1.24893e-09
-1.88105e-08
2.29685e-08
-2.08669e-09
-4.09508e-09
2.52595e-08
-2.47286e-09
-2.149e-09
2.65665e-08
-2.6735e-09
-9.78065e-10
2.69508e-08
-2.67925e-09
1.29142e-10
2.68011e-08
-2.52894e-09
8.18962e-10
2.63165e-08
-2.25856e-09
1.29463e-09
2.54775e-08
-1.88178e-09
1.7779e-09
2.41837e-08
-1.41886e-09
2.32967e-09
2.22801e-08
-9.42039e-10
2.95592e-09
1.94181e-08
-6.03141e-10
3.67762e-09
1.51032e-08
-6.18091e-10
4.50088e-09
8.48774e-09
-1.14822e-09
5.51368e-09
-1.28867e-09
5.75586e-09
1.8781e-08
-1.29115e-09
-1.87388e-08
2.28268e-08
-2.15253e-09
-3.98006e-09
2.51296e-08
-2.64051e-09
-2.13534e-09
2.64784e-08
-2.94793e-09
-1.07456e-09
2.69055e-08
-3.04742e-09
-5.90639e-11
2.68015e-08
-2.98701e-09
5.61858e-10
2.63556e-08
-2.80353e-09
9.90815e-10
2.55168e-08
-2.50751e-09
1.46443e-09
2.41442e-08
-2.10054e-09
2.05423e-09
2.20405e-08
-1.62207e-09
2.78372e-09
1.88993e-08
-1.1489e-09
3.68691e-09
1.43201e-08
-7.89048e-10
4.75015e-09
7.70558e-09
-4.69928e-10
5.93619e-09
3.1823e-10
6.09867e-09
1.86593e-08
-1.34233e-09
-1.86082e-08
2.261e-08
-2.25818e-09
-3.84515e-09
2.4905e-08
-2.79437e-09
-2.14125e-09
2.6259e-08
-3.12485e-09
-1.17725e-09
2.67039e-08
-3.24473e-09
-2.47651e-10
2.66394e-08
-3.21332e-09
2.90703e-10
2.62353e-08
-3.06987e-09
6.70378e-10
2.542e-08
-2.81353e-09
1.12128e-09
2.4025e-08
-2.44098e-09
1.73552e-09
2.18095e-08
-1.97127e-09
2.56476e-09
1.84493e-08
-1.43852e-09
3.6499e-09
1.3626e-08
-8.96468e-10
4.93075e-09
7.09864e-09
-1.69946e-10
6.22746e-09
1.12511e-09
6.29181e-09
1.85171e-08
-1.40786e-09
-1.84516e-08
2.23638e-08
-2.36252e-09
-3.74242e-09
2.46476e-08
-2.88582e-09
-2.19242e-09
2.59986e-08
-3.17917e-09
-1.29673e-09
2.64542e-08
-3.27303e-09
-4.27347e-10
2.64232e-08
-3.231e-09
4.86784e-11
2.60636e-08
-3.08805e-09
3.77724e-10
2.52849e-08
-2.84695e-09
8.12168e-10
2.39008e-08
-2.50242e-09
1.44564e-09
2.164e-08
-2.05993e-09
2.34959e-09
1.81625e-08
-1.53443e-09
3.57363e-09
1.31996e-08
-9.46871e-10
5.01351e-09
6.72353e-09
-7.47751e-11
6.38107e-09
1.47359e-09
6.37515e-09
1.83872e-08
-1.41324e-09
-1.83818e-08
2.21494e-08
-2.34539e-09
-3.77938e-09
2.44092e-08
-2.81636e-09
-2.32927e-09
2.57408e-08
-3.04302e-09
-1.46784e-09
2.61823e-08
-3.0874e-09
-6.27098e-10
2.61622e-08
-3.02141e-09
-1.89514e-10
2.58344e-08
-2.87394e-09
1.13755e-10
2.50923e-08
-2.6453e-09
5.40569e-10
2.37318e-08
-2.33267e-09
1.19099e-09
2.14581e-08
-1.93701e-09
2.15099e-09
1.79149e-08
-1.46625e-09
3.47529e-09
1.28639e-08
-9.2138e-10
5.02583e-09
6.42077e-09
-7.10981e-11
6.43973e-09
1.50282e-09
6.39171e-09
1.8293e-08
-1.28985e-09
-1.84163e-08
2.19703e-08
-2.1218e-09
-3.90085e-09
2.41907e-08
-2.51295e-09
-2.52387e-09
2.54898e-08
-2.66679e-09
-1.67527e-09
2.59041e-08
-2.66684e-09
-8.34848e-10
2.58767e-08
-2.58585e-09
-4.0812e-10
2.55651e-08
-2.44506e-09
-1.17164e-10
2.48558e-08
-2.24027e-09
3.04391e-10
2.35244e-08
-1.97245e-09
9.71399e-10
2.1253e-08
-1.64511e-09
1.97986e-09
1.76703e-08
-1.2622e-09
3.37902e-09
1.25586e-08
-8.1579e-10
5.00644e-09
6.14308e-09
-1.01574e-10
6.44644e-09
1.28153e-09
6.36457e-09
1.8211e-08
-1.03026e-09
-1.84705e-08
2.17906e-08
-1.69117e-09
-4.01017e-09
2.39738e-08
-1.98083e-09
-2.71527e-09
2.5246e-08
-2.06765e-09
-1.87127e-09
2.56373e-08
-2.04117e-09
-1.01693e-09
2.55995e-08
-1.96114e-09
-5.86898e-10
2.53008e-08
-1.8413e-09
-3.04886e-10
2.46241e-08
-1.67804e-09
1.14661e-10
2.3323e-08
-1.47303e-09
8.01945e-10
2.10602e-08
-1.23171e-09
1.84981e-09
1.74541e-08
-9.5826e-10
3.30257e-09
1.23028e-08
-6.44526e-10
4.98046e-09
5.91439e-09
-1.42877e-10
6.43024e-09
8.78762e-10
6.31739e-09
1.81173e-08
-6.91487e-10
-1.8456e-08
2.16032e-08
-1.13598e-09
-4.04097e-09
2.37668e-08
-1.30715e-09
-2.83724e-09
2.50337e-08
-1.32973e-09
-2.00473e-09
2.54207e-08
-1.29034e-09
-1.13781e-09
2.53845e-08
-1.2248e-09
-7.00061e-10
2.51021e-08
-1.13695e-09
-4.21794e-10
2.44539e-08
-1.02565e-09
-3.95028e-12
2.31791e-08
-8.93635e-10
6.95723e-10
2.09266e-08
-7.48127e-10
1.76933e-09
1.7308e-08
-5.94947e-10
3.25573e-09
1.21328e-08
-4.30439e-10
4.9616e-09
5.76245e-09
-1.82139e-10
6.41021e-09
3.66227e-10
6.27525e-09
1.80373e-08
-3.65755e-10
-1.83629e-08
2.1454e-08
-5.79342e-10
-3.97317e-09
2.36151e-08
-6.11142e-10
-2.85702e-09
2.48957e-08
-5.63715e-10
-2.04655e-09
2.52967e-08
-5.1209e-10
-1.17916e-09
2.52711e-08
-4.61564e-10
-7.37566e-10
2.50024e-08
-4.05858e-10
-4.622e-10
2.43734e-08
-3.47718e-10
-4.86867e-11
2.31167e-08
-2.90916e-10
6.54331e-10
2.08724e-08
-2.42041e-10
1.73863e-09
1.72484e-08
-2.10399e-10
3.23988e-09
1.20628e-08
-2.00026e-10
4.95568e-09
5.69901e-09
-2.15839e-10
6.39813e-09
-1.89586e-10
6.2551e-09
1.79944e-08
-1.12846e-10
-1.82472e-08
2.13779e-08
-1.06806e-10
-3.85584e-09
2.35425e-08
1.47365e-11
-2.79041e-09
2.48495e-08
1.34996e-10
-2.0056e-09
2.52748e-08
2.106e-10
-1.1479e-09
2.52643e-08
2.56773e-10
-7.07736e-10
2.50091e-08
2.86706e-10
-4.37155e-10
2.43919e-08
2.97679e-10
-2.79596e-11
2.31426e-08
2.86813e-10
6.71935e-10
2.08998e-08
2.46003e-10
1.75507e-09
1.72732e-08
1.60659e-10
3.25604e-09
1.20875e-08
1.73584e-11
4.96889e-09
5.72798e-09
-2.57728e-10
6.40196e-09
-7.14901e-10
6.25357e-09
1.79959e-08
7.73515e-11
-1.8186e-08
2.13965e-08
2.72474e-10
-3.77973e-09
2.35712e-08
5.27707e-10
-2.68754e-09
2.48979e-08
7.22415e-10
-1.91398e-09
2.53427e-08
8.31248e-10
-1.06531e-09
2.53467e-08
8.83148e-10
-6.30258e-10
2.50998e-08
8.96959e-10
-3.63214e-10
2.44827e-08
8.71879e-10
4.31692e-11
2.32274e-08
8.05186e-10
7.37218e-10
2.09758e-08
6.85365e-10
1.81259e-09
1.73419e-08
4.90824e-10
3.30422e-09
1.21551e-08
1.99179e-10
5.00546e-09
5.79469e-09
-3.2283e-10
6.4261e-09
-1.1899e-09
6.26996e-09
1.80641e-08
2.46615e-10
-1.82332e-08
2.15306e-08
5.7816e-10
-3.77206e-09
2.37169e-08
9.27025e-10
-2.58549e-09
2.5047e-08
1.19106e-09
-1.79858e-09
2.54977e-08
1.33527e-09
-9.54661e-10
2.55073e-08
1.39953e-09
-5.25798e-10
2.52571e-08
1.40686e-09
-2.5954e-10
2.46248e-08
1.35699e-09
1.47371e-10
2.33475e-08
1.2451e-09
8.3769e-10
2.10718e-08
1.05551e-09
1.90595e-09
1.74178e-08
7.59579e-10
3.38559e-09
1.22205e-08
3.29096e-10
5.06788e-09
5.84932e-09
-4.2056e-10
6.46946e-09
-1.6425e-09
6.30216e-09
1.82039e-08
4.09366e-10
-1.83665e-08
2.17588e-08
8.30938e-10
-3.80752e-09
2.39514e-08
1.24158e-09
-2.50695e-09
2.52775e-08
1.5557e-09
-1.69062e-09
2.57243e-08
1.73018e-09
-8.41565e-10
2.5728e-08
1.80765e-09
-4.11672e-10
2.54624e-08
1.81156e-09
-1.38953e-10
2.48011e-08
1.7423e-09
2.76113e-10
2.34859e-08
1.59114e-09
9.69472e-10
2.11696e-08
1.33671e-09
2.03539e-09
1.74818e-08
9.45886e-10
3.50187e-09
1.22655e-08
3.89495e-10
5.15629e-09
5.88407e-09
-5.64712e-10
6.5261e-09
-2.09838e-09
6.34016e-09
1.83838e-08
5.56755e-10
-1.8531e-08
2.20479e-08
1.03861e-09
-3.87158e-09
2.42544e-08
1.47717e-09
-2.44198e-09
2.55771e-08
1.82367e-09
-1.59057e-09
2.60152e-08
2.02113e-09
-7.28887e-10
2.60048e-08
2.10476e-09
-2.86605e-10
2.57125e-08
2.10291e-09
1.06598e-12
2.50081e-08
2.01524e-09
4.31595e-10
2.36395e-08
1.82446e-09
1.1355e-09
2.12687e-08
1.50608e-09
2.2017e-09
1.75391e-08
1.02734e-09
3.64846e-09
1.23048e-08
3.63364e-10
5.2608e-09
5.92118e-09
-7.66057e-10
6.58536e-09
-2.55604e-09
6.37903e-09
1.85691e-08
6.70505e-10
-1.86827e-08
2.2364e-08
1.18e-09
-3.93617e-09
2.46003e-08
1.61618e-09
-2.37518e-09
2.59291e-08
1.97719e-09
-1.48219e-09
2.63636e-08
2.18681e-09
-6.00093e-10
2.63312e-08
2.27014e-09
-1.32892e-10
2.5997e-08
2.25801e-09
1.79174e-10
2.52364e-08
2.14481e-09
6.31175e-10
2.38045e-08
1.91015e-09
1.34633e-09
2.13743e-08
1.53108e-09
2.4054e-09
1.76076e-08
9.79102e-10
3.81517e-09
1.23692e-08
2.36456e-10
5.36556e-09
5.99314e-09
-1.02329e-09
6.63356e-09
-2.9764e-09
6.41364e-09
1.87443e-08
7.22179e-10
-1.87959e-08
2.26844e-08
1.21525e-09
-3.97522e-09
2.49725e-08
1.62444e-09
-2.29632e-09
2.63207e-08
1.97684e-09
-1.34778e-09
2.67593e-08
2.17814e-09
-4.29867e-10
2.67036e-08
2.24821e-09
7.76677e-11
2.63205e-08
2.21682e-09
4.24325e-10
2.54979e-08
2.07525e-09
8.92186e-10
2.40005e-08
1.80079e-09
1.60684e-09
2.15189e-08
1.37569e-09
2.63701e-09
1.77356e-08
7.80552e-10
3.98206e-09
1.2521e-08
3.06111e-12
5.44811e-09
6.15398e-09
-1.31029e-09
6.65419e-09
-3.25872e-09
6.43638e-09
1.89071e-08
6.87699e-10
-1.88725e-08
2.30017e-08
1.11257e-09
-3.99193e-09
2.53584e-08
1.46475e-09
-2.19689e-09
2.67436e-08
1.77927e-09
-1.18758e-09
2.71882e-08
1.94889e-09
-2.15452e-10
2.71029e-08
1.99347e-09
3.40056e-10
2.66699e-08
1.93591e-09
7.13844e-10
2.57891e-08
1.77007e-09
1.18591e-09
2.42351e-08
1.47394e-09
1.88084e-09
2.17225e-08
1.0339e-09
2.8544e-09
1.79528e-08
4.43002e-10
4.10719e-09
1.27914e-08
-3.07278e-10
5.47177e-09
6.40975e-09
-1.55972e-09
6.63116e-09
-3.29023e-09
6.44129e-09
1.9064e-08
5.65041e-10
-1.89413e-08
2.3316e-08
8.67712e-10
-4.00715e-09
2.57455e-08
1.13133e-09
-2.09607e-09
2.71758e-08
1.38021e-09
-1.03131e-09
2.76301e-08
1.49873e-09
-4.2277e-12
2.75147e-08
1.50956e-09
5.99154e-10
2.70328e-08
1.43123e-09
9.86416e-10
2.61005e-08
1.25559e-09
1.44655e-09
2.45056e-08
9.66654e-10
2.10213e-09
2.19836e-08
5.56715e-10
2.99906e-09
1.82521e-08
3.05872e-11
4.14377e-09
1.31542e-08
-6.1874e-10
5.40925e-09
6.72033e-09
-1.68264e-09
6.55675e-09
-3.00256e-09
6.43262e-09
1.92196e-08
3.7491e-10
-1.90295e-08
2.36168e-08
5.22122e-10
-4.05168e-09
2.61082e-08
6.77066e-10
-2.0372e-09
2.75639e-08
8.42646e-10
-9.18263e-10
2.80145e-08
9.07495e-10
1.40377e-10
2.78737e-08
8.84702e-10
7.65508e-10
2.735e-08
7.94416e-10
1.16025e-09
2.63768e-08
6.30464e-10
1.59807e-09
2.47571e-08
3.83729e-10
2.2024e-09
2.22414e-08
5.34836e-11
3.01871e-09
1.85567e-08
-3.50699e-10
4.06576e-09
1.35026e-08
-8.34619e-10
5.26975e-09
6.98617e-09
-1.61405e-09
6.44769e-09
-2.43582e-09
6.41934e-09
1.93671e-08
1.60007e-10
-1.91522e-08
2.38841e-08
1.60093e-10
-4.15515e-09
2.64146e-08
2.04802e-10
-2.05843e-09
2.78793e-08
2.78541e-10
-9.00826e-10
2.83212e-08
2.95223e-10
1.7008e-10
2.8153e-08
2.56334e-10
7.96273e-10
2.75902e-08
1.76607e-10
1.18017e-09
2.65818e-08
5.14261e-11
1.58709e-09
2.49448e-08
-1.21509e-10
2.14192e-09
2.24388e-08
-3.36312e-10
2.89551e-09
1.87868e-08
-5.86155e-10
3.88719e-09
1.37399e-08
-8.76494e-10
5.08846e-09
7.1306e-09
-1.3448e-09
6.33973e-09
-1.72322e-09
6.41785e-09
1.94788e-08
-2.024e-11
-1.92987e-08
2.40825e-08
-1.26348e-10
-4.31756e-09
2.66328e-08
-1.78872e-10
-2.16689e-09
2.80918e-08
-1.93277e-10
-9.87487e-10
2.85196e-08
-2.14208e-10
8.11836e-11
2.83232e-08
-2.46566e-10
6.98892e-10
2.77247e-08
-2.90792e-10
1.06546e-09
2.66854e-08
-3.52378e-10
1.44266e-09
2.50327e-08
-4.30901e-10
1.96161e-09
2.25303e-08
-5.20235e-10
2.68593e-09
1.88857e-08
-6.19979e-10
3.67798e-09
1.38181e-08
-7.3692e-10
4.92759e-09
7.14152e-09
-9.41374e-10
6.27271e-09
-1.01812e-09
6.4362e-09
1.95226e-08
-1.51841e-10
-1.93912e-08
2.41772e-08
-3.13069e-10
-4.46827e-09
2.67356e-08
-4.23756e-10
-2.31395e-09
2.8176e-08
-5.02735e-10
-1.13146e-09
2.85881e-08
-5.48116e-10
-7.87499e-11
2.83738e-08
-5.63293e-10
5.30386e-10
2.77542e-08
-5.62655e-10
8.90885e-10
2.66963e-08
-5.54288e-10
1.25918e-09
2.50333e-08
-5.40358e-10
1.77191e-09
2.25286e-08
-5.20664e-10
2.5046e-09
1.88766e-08
-4.99999e-10
3.53143e-09
1.37813e-08
-4.86146e-10
4.8439e-09
7.07663e-09
-4.98977e-10
6.26165e-09
-4.0884e-10
6.46703e-09
1.9516e-08
-2.48974e-10
-1.94192e-08
2.41883e-08
-4.37878e-10
-4.54811e-09
2.67492e-08
-5.80555e-10
-2.40467e-09
2.81837e-08
-7.0595e-10
-1.23199e-09
2.85971e-08
-7.71272e-10
-1.91038e-10
2.83879e-08
-7.77874e-10
4.23005e-10
2.77725e-08
-7.43444e-10
7.95436e-10
2.67162e-08
-6.76986e-10
1.1782e-09
2.50533e-08
-5.83081e-10
1.70485e-09
2.25458e-08
-4.69523e-10
2.4556e-09
1.8883e-08
-3.44992e-10
3.50699e-09
1.37663e-08
-2.1767e-10
4.84738e-09
7.04812e-09
-6.84724e-11
6.28685e-09
1.43983e-10
6.49488e-09
1.94802e-08
-3.41063e-10
-1.93886e-08
2.41306e-08
-5.63541e-10
-4.52551e-09
2.66912e-08
-7.53385e-10
-2.38867e-09
2.81488e-08
-9.36983e-10
-1.22737e-09
2.85917e-08
-1.03512e-09
-1.80092e-10
2.8413e-08
-1.0496e-09
4.49451e-10
2.78267e-08
-9.9862e-10
8.40431e-10
2.67935e-08
-8.89264e-10
1.24444e-09
2.51438e-08
-7.24755e-10
1.79032e-09
2.26364e-08
-5.16722e-10
2.55353e-09
1.8964e-08
-2.78592e-10
3.60504e-09
1.38375e-08
-1.96944e-11
4.92744e-09
7.10787e-09
3.27048e-10
6.33301e-09
7.39111e-10
6.5122e-09
1.93923e-08
-4.64979e-10
-1.9269e-08
2.39727e-08
-7.48074e-10
-4.39679e-09
2.65279e-08
-1.00508e-09
-2.30459e-09
2.80179e-08
-1.26418e-09
-1.16386e-09
2.85034e-08
-1.41103e-09
-1.10791e-10
2.83731e-08
-1.44979e-09
5.29309e-10
2.78355e-08
-1.40022e-09
9.37839e-10
2.68428e-08
-1.26402e-09
1.36616e-09
2.52164e-08
-1.0402e-09
1.94057e-09
2.27096e-08
-7.37441e-10
2.72617e-09
1.90213e-08
-3.72826e-10
3.78123e-09
1.38838e-08
4.32535e-11
5.07321e-09
7.15841e-09
6.38189e-10
6.41288e-09
1.36589e-09
6.53097e-09
1.92526e-08
-6.21456e-10
-1.90967e-08
2.37171e-08
-9.84206e-10
-4.22939e-09
2.62497e-08
-1.31872e-09
-2.22005e-09
2.77625e-08
-1.65973e-09
-1.11837e-09
2.82914e-08
-1.86764e-09
-7.34927e-11
2.82179e-08
-1.94754e-09
5.69815e-10
2.77422e-08
-1.91706e-09
9.91034e-10
2.68017e-08
-1.7704e-09
1.44533e-09
2.52047e-08
-1.50224e-09
2.05738e-09
2.26969e-08
-1.11603e-09
2.88483e-09
1.89792e-08
-6.27767e-10
3.97105e-09
1.38138e-08
-4.9739e-11
5.25675e-09
7.11667e-09
8.01785e-10
6.53192e-09
1.91874e-09
6.56304e-09
1.90896e-08
-7.49243e-10
-1.89623e-08
2.34039e-08
-1.20588e-09
-4.09345e-09
2.58897e-08
-1.62706e-09
-2.17823e-09
2.74048e-08
-2.04838e-09
-1.12738e-09
2.79682e-08
-2.32292e-09
-1.0927e-10
2.79557e-08
-2.4523e-09
5.1586e-10
2.75537e-08
-2.44924e-09
9.32623e-10
2.66787e-08
-2.30852e-09
1.41141e-09
2.51246e-08
-2.01782e-09
2.06791e-09
2.26238e-08
-1.57375e-09
2.95678e-09
1.88692e-08
-9.84808e-10
4.10974e-09
1.36531e-08
-2.67035e-10
5.43161e-09
6.98103e-09
8.01218e-10
6.67067e-09
2.28771e-09
6.61119e-09
1.89195e-08
-8.19515e-10
-1.88493e-08
2.30626e-08
-1.3735e-09
-3.97564e-09
2.54869e-08
-1.88656e-09
-2.16494e-09
2.69882e-08
-2.37976e-09
-1.17035e-09
2.75787e-08
-2.70846e-09
-2.05499e-10
2.76351e-08
-2.87313e-09
3.63423e-10
2.73183e-08
-2.89907e-09
7.65384e-10
2.65261e-08
-2.7752e-09
1.25733e-09
2.50377e-08
-2.48216e-09
1.95099e-09
2.25655e-08
-2.01106e-09
2.90764e-09
1.87848e-08
-1.35949e-09
4.15349e-09
1.35051e-08
-5.41772e-10
5.55236e-09
6.82533e-09
6.78251e-10
6.80073e-09
2.43664e-09
6.67551e-09
1.8738e-08
-8.43177e-10
-1.87138e-08
2.2708e-08
-1.498e-09
-3.84451e-09
2.50723e-08
-2.10027e-09
-2.14976e-09
2.65608e-08
-2.63918e-09
-1.22842e-09
2.71806e-08
-2.98719e-09
-3.4072e-10
2.73061e-08
-3.16328e-09
1.64576e-10
2.70802e-08
-3.20281e-09
5.29098e-10
2.63836e-08
-3.09075e-09
1.01118e-09
2.49832e-08
-2.80561e-09
1.72256e-09
2.25668e-08
-2.33513e-09
2.73884e-09
1.87877e-08
-1.6656e-09
4.0836e-09
1.34567e-08
-8.01141e-10
5.58863e-09
6.74062e-09
4.98657e-10
6.89398e-09
2.43025e-09
6.74639e-09
1.85377e-08
-8.59003e-10
-1.85205e-08
2.23541e-08
-1.61501e-09
-3.69718e-09
2.46814e-08
-2.28031e-09
-2.14503e-09
2.61708e-08
-2.8179e-09
-1.30876e-09
2.68156e-08
-3.14141e-09
-4.88971e-10
2.69987e-08
-3.29278e-09
-5.23896e-11
2.68556e-08
-3.30828e-09
2.49355e-10
2.62517e-08
-3.18572e-09
6.99027e-10
2.49437e-08
-2.90753e-09
1.40966e-09
2.2599e-08
-2.46036e-09
2.46944e-09
1.8846e-08
-1.81995e-09
3.90677e-09
1.34853e-08
-9.73464e-10
5.5325e-09
6.72236e-09
3.29468e-10
6.93182e-09
2.35027e-09
6.80245e-09
1.8336e-08
-8.99571e-10
-1.82933e-08
2.20341e-08
-1.73047e-09
-3.57923e-09
2.43539e-08
-2.3959e-09
-2.20092e-09
2.58512e-08
-2.87298e-09
-1.4389e-09
2.65037e-08
-3.12006e-09
-6.70771e-10
2.67146e-08
-3.20056e-09
-3.00312e-10
2.66228e-08
-3.15718e-09
-5.68044e-11
2.60872e-08
-2.9998e-09
3.51724e-10
2.48529e-08
-2.72564e-09
1.05413e-09
2.25726e-08
-2.32144e-09
2.14296e-09
1.88512e-08
-1.75583e-09
3.65888e-09
1.3475e-08
-9.97766e-10
5.40246e-09
6.68426e-09
2.16174e-10
6.9063e-09
2.21722e-09
6.81868e-09
1.8186e-08
-9.42077e-10
-1.81409e-08
2.1802e-08
-1.76325e-09
-3.5792e-09
2.41175e-08
-2.33466e-09
-2.37265e-09
2.5609e-08
-2.6861e-09
-1.67418e-09
2.62475e-08
-2.81887e-09
-9.35413e-10
2.64431e-08
-2.80488e-09
-5.86789e-10
2.6353e-08
-2.69468e-09
-3.67971e-10
2.58448e-08
-2.50432e-09
1.71189e-11
2.4652e-08
-2.24148e-09
7.1315e-10
2.24114e-08
-1.8992e-09
1.8231e-09
1.87073e-08
-1.44612e-09
3.39937e-09
1.33158e-08
-8.40723e-10
5.23995e-09
6.53554e-09
1.76737e-10
6.82571e-09
1.97362e-09
6.78211e-09
1.81475e-08
-8.68852e-10
-1.82183e-08
2.16926e-08
-1.53084e-09
-3.77374e-09
2.39698e-08
-1.91598e-09
-2.69198e-09
2.5429e-08
-2.10787e-09
-2.03325e-09
2.60273e-08
-2.14112e-09
-1.27131e-09
2.61799e-08
-2.06619e-09
-8.85858e-10
2.60531e-08
-1.92306e-09
-6.38769e-10
2.55299e-08
-1.73403e-09
-2.4028e-10
2.43461e-08
-1.51022e-09
4.60105e-10
2.21174e-08
-1.25045e-09
1.58798e-09
1.84093e-08
-9.31593e-10
3.2021e-09
1.29969e-08
-5.198e-10
5.10055e-09
6.26628e-09
1.99637e-10
6.71719e-09
1.54565e-09
6.69849e-09
1.82173e-08
-4.9637e-10
-1.85882e-08
2.16693e-08
-8.62024e-10
-4.11849e-09
2.38674e-08
-1.02901e-09
-3.08242e-09
2.52772e-08
-1.09546e-09
-2.41918e-09
2.58262e-08
-1.0951e-09
-1.59107e-09
2.5927e-08
-1.03679e-09
-1.12518e-09
2.57526e-08
-9.33882e-10
-8.08454e-10
2.51974e-08
-8.0287e-10
-3.68278e-10
2.40035e-08
-6.58199e-10
3.50858e-10
2.17669e-08
-5.01897e-10
1.49773e-09
1.80411e-08
-3.22949e-10
3.12732e-09
1.26111e-08
-1.13772e-10
5.03452e-09
5.96211e-09
2.40625e-10
6.61887e-09
9.12526e-10
6.59981e-09
1.82903e-08
1.09019e-10
-1.88955e-08
2.16281e-08
1.35166e-10
-4.33495e-09
2.37462e-08
1.6912e-10
-3.31603e-09
2.51172e-08
1.72587e-10
-2.63833e-09
2.56249e-08
1.55622e-10
-1.75673e-09
2.56766e-08
1.43935e-10
-1.22938e-09
2.54525e-08
1.52445e-10
-8.5756e-10
2.48615e-08
1.78775e-10
-3.84323e-10
2.36562e-08
2.04302e-10
3.50693e-10
2.14177e-08
2.24447e-10
1.52102e-09
1.76919e-08
2.45627e-10
3.1663e-09
1.22772e-08
2.48953e-10
5.0613e-09
5.72657e-09
2.17473e-10
6.58343e-09
1.00444e-10
6.54251e-09
1.82199e-08
5.38514e-10
-1.86508e-08
2.1509e-08
9.9563e-10
-4.15235e-09
2.35853e-08
1.29653e-09
-3.20627e-09
2.4901e-08
1.43398e-09
-2.57927e-09
2.5356e-08
1.45309e-09
-1.7539e-09
2.53599e-08
1.40652e-09
-1.2666e-09
2.50981e-08
1.32481e-09
-9.09231e-10
2.45048e-08
1.21666e-09
-4.41527e-10
2.33316e-08
1.08472e-09
2.97406e-10
2.11601e-08
9.32981e-10
1.46869e-09
1.75296e-08
7.44341e-10
3.13772e-09
1.22244e-08
5.0431e-10
5.05602e-09
5.75408e-09
9.9046e-11
6.59499e-09
-7.0596e-10
6.56291e-09
1.80581e-08
7.37025e-10
-1.82594e-08
2.13959e-08
1.50855e-09
-3.85554e-09
2.35151e-08
2.06544e-09
-2.89296e-09
2.48577e-08
2.39785e-09
-2.31103e-09
2.53693e-08
2.5335e-09
-1.59599e-09
2.54487e-08
2.53803e-09
-1.21401e-09
2.52674e-08
2.44666e-09
-9.42626e-10
2.47465e-08
2.27043e-09
-5.3376e-10
2.36205e-08
2.02676e-09
1.84092e-10
2.14932e-08
1.71777e-09
1.34342e-09
1.79208e-08
1.31568e-09
3.00243e-09
1.26485e-08
8.1308e-10
4.96528e-09
6.06719e-09
4.97575e-11
6.63257e-09
-1.26754e-09
6.62945e-09
1.80234e-08
8.57203e-10
-1.81466e-08
2.14439e-08
1.74704e-09
-3.6645e-09
2.36459e-08
2.42949e-09
-2.57156e-09
2.5083e-08
2.91158e-09
-1.95627e-09
2.57122e-08
3.16957e-09
-1.27049e-09
2.59182e-08
3.25383e-09
-9.26592e-10
2.58525e-08
3.20225e-09
-6.94102e-10
2.53839e-08
3.0361e-09
-3.00848e-10
2.42436e-08
2.76498e-09
3.98629e-10
2.2083e-08
2.37906e-09
1.49632e-09
1.84763e-08
1.84667e-09
3.07303e-09
1.31513e-08
1.15506e-09
4.98072e-09
6.37732e-09
1.10876e-10
6.71094e-09
-1.58661e-09
6.69554e-09
1.81521e-08
9.26118e-10
-1.82235e-08
2.16923e-08
1.79097e-09
-3.58864e-09
2.39626e-08
2.48199e-09
-2.32754e-09
2.54643e-08
3.0291e-09
-1.62387e-09
2.61546e-08
3.36083e-09
-8.86251e-10
2.64133e-08
3.50466e-09
-5.14158e-10
2.63673e-08
3.50466e-09
-2.61018e-10
2.58671e-08
3.38026e-09
1.51336e-10
2.46645e-08
3.12627e-09
8.36485e-10
2.24221e-08
2.72511e-09
1.89135e-09
1.87334e-08
2.13934e-09
3.39111e-09
1.33512e-08
1.3456e-09
5.187e-09
6.49399e-09
1.27894e-10
6.83579e-09
-1.82239e-09
6.72796e-09
1.83524e-08
9.21852e-10
-1.83496e-08
2.20268e-08
1.71182e-09
-3.59806e-09
2.43259e-08
2.36519e-09
-2.18517e-09
2.58241e-08
2.92029e-09
-1.39233e-09
2.64865e-08
3.27772e-09
-5.82418e-10
2.67007e-08
3.45425e-09
-1.66961e-10
2.65983e-08
3.49037e-09
1.13126e-10
2.60283e-08
3.39117e-09
5.55082e-10
2.47414e-08
3.14556e-09
1.26316e-09
2.23969e-08
2.73377e-09
2.33082e-09
1.86219e-08
2.12087e-09
3.78841e-09
1.32201e-08
1.28185e-09
5.46036e-09
6.43144e-09
-2.57725e-11
6.93722e-09
-2.11633e-09
6.72335e-09
1.85525e-08
9.00574e-10
-1.85318e-08
2.23593e-08
1.60363e-09
-3.6997e-09
2.46626e-08
2.20491e-09
-2.1441e-09
2.61187e-08
2.74279e-09
-1.27975e-09
2.67194e-08
3.09511e-09
-4.1933e-10
2.68582e-08
3.27222e-09
4.18767e-11
2.66733e-08
3.31086e-09
3.62629e-10
2.60178e-08
3.20321e-09
8.41198e-10
2.4635e-08
2.93237e-09
1.593e-09
2.21924e-08
2.48423e-09
2.68862e-09
1.83534e-08
1.83833e-09
4.11763e-09
1.29728e-08
9.83889e-10
5.67438e-09
6.33066e-09
-3.55613e-10
6.96764e-09
-2.47703e-09
6.68966e-09
1.87424e-08
8.82794e-10
-1.87246e-08
2.26926e-08
1.49346e-09
-3.83997e-09
2.50187e-08
2.02796e-09
-2.1491e-09
2.64493e-08
2.52442e-09
-1.21214e-09
2.70056e-08
2.84464e-09
-3.05723e-10
2.70779e-08
2.99479e-09
2.05192e-10
2.68059e-08
3.00476e-09
5.77812e-10
2.60555e-08
2.86514e-09
1.08782e-09
2.45761e-08
2.55597e-09
1.85456e-09
2.2056e-08
2.0692e-09
2.93342e-09
1.81886e-08
1.40189e-09
4.30162e-09
1.28593e-08
5.61481e-10
5.74915e-09
6.33988e-09
-7.52917e-10
6.91388e-09
-2.77344e-09
6.63517e-09
1.893e-08
8.23426e-10
-1.88704e-08
2.30503e-08
1.33037e-09
-3.95678e-09
2.54364e-08
1.77854e-09
-2.1362e-09
2.68833e-08
2.20281e-09
-1.12463e-09
2.74184e-08
2.46179e-09
-1.51586e-10
2.7428e-08
2.56731e-09
4.1856e-10
2.70681e-08
2.53559e-09
8.29733e-10
2.62238e-08
2.36167e-09
1.34808e-09
2.46606e-08
2.0298e-09
2.08949e-09
2.20939e-08
1.53785e-09
3.09767e-09
1.82389e-08
8.97723e-10
4.35853e-09
1.29797e-08
1.23217e-10
5.69653e-09
6.50573e-09
-1.08392e-09
6.8037e-09
-2.83808e-09
6.56989e-09
1.91199e-08
6.83884e-10
-1.89803e-08
2.34264e-08
1.06405e-09
-4.03986e-09
2.58918e-08
1.4092e-09
-2.09562e-09
2.73763e-08
1.74291e-09
-1.0241e-09
2.78973e-08
1.92557e-09
1.58428e-11
2.78421e-08
1.97566e-09
6.4765e-10
2.73978e-08
1.90851e-09
1.07215e-09
2.64716e-08
1.71806e-09
1.57061e-09
2.48479e-08
1.3979e-09
2.25634e-09
2.22658e-08
9.52251e-10
3.1683e-09
1.84555e-08
4.01487e-10
4.30695e-09
1.32724e-08
-2.44272e-10
5.55087e-09
6.77235e-09
-1.24349e-09
6.65963e-09
-2.57432e-09
6.5086e-09
1.93089e-08
4.73575e-10
-1.90986e-08
2.37891e-08
7.18398e-10
-4.13461e-09
2.632e-08
9.60018e-10
-2.0817e-09
2.78195e-08
1.19653e-09
-9.52934e-10
2.83142e-08
1.30817e-09
1.23031e-10
2.82025e-08
1.31072e-09
7.7709e-10
2.76867e-08
1.22399e-09
1.20087e-09
2.66972e-08
1.045e-09
1.66338e-09
2.50377e-08
7.74424e-10
2.28389e-09
2.24631e-08
4.22784e-10
3.10506e-09
1.87061e-08
1.07308e-11
4.14878e-09
1.35791e-08
-4.57624e-10
5.34127e-09
7.00914e-09
-1.17578e-09
6.50313e-09
-2.02789e-09
6.46307e-09
1.94772e-08
2.64214e-10
-1.9268e-08
2.40928e-08
3.90216e-10
-4.28777e-09
2.66567e-08
5.3951e-10
-2.1438e-09
2.81465e-08
6.78904e-10
-9.7245e-10
2.86071e-08
7.34215e-10
1.13275e-10
2.84423e-08
7.15942e-10
7.59696e-10
2.78675e-08
6.37236e-10
1.16185e-09
2.68311e-08
4.99268e-10
1.58271e-09
2.51515e-08
3.08062e-10
2.1469e-09
2.25906e-08
7.73668e-11
2.90738e-09
1.8875e-08
-1.78448e-10
3.90604e-09
1.37679e-08
-4.591e-10
5.11e-09
7.11716e-09
-8.88363e-10
6.36463e-09
-1.35356e-09
6.44339e-09
1.96212e-08
3.46734e-11
-1.9392e-08
2.42769e-08
1.97718e-10
-4.46385e-09
2.6845e-08
2.43789e-10
-2.27303e-09
2.83194e-08
2.78739e-10
-1.07475e-09
2.8749e-08
3.01172e-10
3.13038e-12
2.85402e-08
2.91319e-10
6.33237e-10
2.79209e-08
2.44992e-10
1.01165e-09
2.68533e-08
1.69322e-10
1.39804e-09
2.51646e-08
7.1828e-11
1.92568e-09
2.26193e-08
-3.68716e-11
2.66059e-09
1.89309e-08
-1.51394e-10
3.66265e-09
1.38232e-08
-2.73361e-10
4.92346e-09
7.11926e-09
-4.64607e-10
6.28162e-09
-6.90984e-10
6.45727e-09
1.96043e-08
-1.95698e-08
2.44393e-08
-4.63756e-09
2.70482e-08
-2.36538e-09
2.84648e-08
-1.13817e-09
2.88438e-08
-7.79468e-11
2.86044e-08
5.30598e-10
2.79587e-08
8.90689e-10
2.68689e-08
1.25931e-09
2.51709e-08
1.77013e-09
2.26346e-08
2.49982e-09
1.89633e-08
3.52043e-09
1.38634e-08
4.82706e-09
7.15198e-09
6.24736e-09
6.46122e-09
7.10545e-09
-1.54382e-09
-2.21004e-08
1.09857e-08
-1.68266e-09
-3.3005e-09
1.26798e-08
-1.66167e-09
7.38184e-10
1.38437e-08
-1.52786e-09
1.96719e-09
1.43538e-08
-1.20612e-09
2.91258e-09
1.408e-08
-7.7964e-10
3.52591e-09
1.29647e-08
-1.97335e-10
3.87982e-09
1.09361e-08
5.213e-10
4.1895e-09
8.03402e-09
1.19328e-09
4.59165e-09
4.46912e-09
1.61814e-09
5.07634e-09
7.58748e-10
1.40719e-09
5.74276e-09
-1.8959e-09
-2.00522e-10
6.78743e-09
-2.20394e-09
-2.93303e-09
7.58465e-09
-4.84014e-09
6.3646e-09
6.5188e-09
-2.17256e-09
-2.50742e-08
1.05264e-08
-2.98468e-09
-6.92251e-09
1.26512e-08
-3.21541e-09
-2.4691e-09
1.45215e-08
-3.21693e-09
-6.80612e-10
1.61376e-08
-2.96712e-09
8.0689e-10
1.72742e-08
-2.50424e-09
1.95089e-09
1.7921e-08
-1.88122e-09
2.87207e-09
1.80746e-08
-1.11776e-09
3.77789e-09
1.75877e-08
-2.66722e-10
4.73697e-09
1.63029e-08
4.85448e-10
5.72669e-09
1.41112e-08
6.91405e-10
6.76855e-09
1.04807e-08
2.43953e-11
7.81195e-09
5.29717e-09
-1.81761e-09
9.19285e-09
-3.57332e-09
9.27399e-09
6.39276e-09
-2.70487e-09
-2.46712e-08
1.01523e-08
-3.88775e-09
-6.95208e-09
1.2116e-08
-4.22977e-09
-3.09897e-09
1.3789e-08
-4.22098e-09
-1.64764e-09
1.52545e-08
-3.9697e-09
-3.34352e-10
1.63858e-08
-3.54494e-09
7.27911e-10
1.71556e-08
-2.98961e-09
1.63285e-09
1.75605e-08
-2.31358e-09
2.56849e-09
1.75451e-08
-1.54389e-09
3.62192e-09
1.69429e-08
-7.65644e-10
4.80908e-09
1.53329e-08
-1.84847e-10
6.16373e-09
1.22182e-08
-8.7333e-11
7.72711e-09
6.89397e-09
-6.66358e-10
9.68643e-09
-9.6753e-10
1.0044e-08
6.24302e-09
-3.00996e-09
-2.46769e-08
9.81545e-09
-4.39611e-09
-7.04455e-09
1.16788e-08
-4.76499e-09
-3.4639e-09
1.32717e-08
-4.68201e-09
-2.20691e-09
1.46405e-08
-4.36228e-09
-1.03574e-09
1.56734e-08
-3.92212e-09
-9.41844e-11
1.63574e-08
-3.40284e-09
7.19706e-10
1.66844e-08
-2.78501e-09
1.60873e-09
1.65704e-08
-2.06842e-09
2.6927e-09
1.58225e-08
-1.29768e-09
4.0636e-09
1.41211e-08
-5.95433e-10
5.79892e-09
1.10359e-08
-1.4399e-10
7.89205e-09
5.97774e-09
7.6165e-11
1.02518e-08
6.21457e-10
1.04874e-08
6.06977e-09
-3.13363e-09
-2.45544e-08
9.44698e-09
-4.61316e-09
-7.0056e-09
1.12065e-08
-4.92472e-09
-3.74134e-09
1.27311e-08
-4.71633e-09
-2.66797e-09
1.40323e-08
-4.2922e-09
-1.61916e-09
1.49724e-08
-3.80876e-09
-7.62971e-10
1.55651e-08
-3.28882e-09
-3.64062e-11
1.58315e-08
-2.71536e-09
7.85203e-10
1.56886e-08
-2.06395e-09
1.87406e-09
1.49113e-08
-1.3607e-09
3.40537e-09
1.31426e-08
-6.85093e-10
5.50852e-09
1.00052e-08
-1.48905e-10
8.07329e-09
5.23243e-09
4.07387e-10
1.06693e-08
1.4244e-09
1.07214e-08
5.89565e-09
-3.11223e-09
-2.43687e-08
9.08248e-09
-4.57633e-09
-6.96627e-09
1.07379e-08
-4.76154e-09
-4.01129e-09
1.21992e-08
-4.4174e-09
-3.05716e-09
1.34476e-08
-3.89766e-09
-2.07037e-09
1.43249e-08
-3.3738e-09
-1.26366e-09
1.4858e-08
-2.85427e-09
-5.89872e-10
1.50958e-08
-2.31663e-09
1.75939e-10
1.49647e-08
-1.74297e-09
1.25612e-09
1.42119e-08
-1.15189e-09
2.89405e-09
1.244e-08
-6.02134e-10
5.26311e-09
9.29905e-09
-1.41227e-10
8.14736e-09
4.7258e-09
4.95893e-10
1.08664e-08
1.74209e-09
1.07834e-08
5.74729e-09
-2.95321e-09
-2.42881e-08
8.76021e-09
-4.27482e-09
-7.09389e-09
1.03076e-08
-4.32468e-09
-4.31367e-09
1.17018e-08
-3.8691e-09
-3.41043e-09
1.29047e-08
-3.28978e-09
-2.43788e-09
1.37367e-08
-2.74836e-09
-1.64688e-09
1.42279e-08
-2.24575e-09
-9.85689e-10
1.44521e-08
-1.75862e-09
-2.41166e-10
1.43472e-08
-1.27476e-09
8.28207e-10
1.3633e-08
-8.15823e-10
2.5299e-09
1.18746e-08
-4.30847e-10
5.06316e-09
8.73978e-09
-1.14277e-10
8.13458e-09
4.31654e-09
4.56772e-10
1.09029e-08
1.72882e-09
1.07218e-08
5.64693e-09
-2.66838e-09
-2.43481e-08
8.50144e-09
-3.71295e-09
-7.31723e-09
9.9286e-09
-3.63058e-09
-4.64515e-09
1.12426e-08
-3.11639e-09
-3.74198e-09
1.23932e-08
-2.53394e-09
-2.74127e-09
1.31915e-08
-2.01778e-09
-1.93674e-09
1.36592e-08
-1.5613e-09
-1.26901e-09
1.38761e-08
-1.14116e-09
-5.29335e-10
1.37964e-08
-7.56222e-10
5.33364e-10
1.31201e-08
-4.35196e-10
2.27645e-09
1.13799e-08
-2.18055e-10
4.90747e-09
8.25418e-09
-6.44234e-11
8.0834e-09
3.95138e-09
3.52906e-10
1.08542e-08
1.45909e-09
1.0586e-08
5.55779e-09
-2.24756e-09
-2.44491e-08
8.27934e-09
-2.9096e-09
-7.53496e-09
9.6005e-09
-2.70319e-09
-4.96375e-09
1.08445e-08
-2.19612e-09
-4.03544e-09
1.19473e-08
-1.67479e-09
-2.97875e-09
1.27188e-08
-1.22907e-09
-2.14683e-09