/*--------------------------------*- C++ -*----------------------------------*\
| =========                 |                                                 |
| \\      /  F ield         | OpenFOAM: The Open Source CFD Toolbox           |
|  \\    /   O peration     | Version:  5.0                                   |
|   \\  /    A nd           | Web:      www.OpenFOAM.org                      |
|    \\/     M anipulation  |                                                 |
\*---------------------------------------------------------------------------*/
FoamFile
{
    version     2.0;
    format      ascii;
    class       volScalarField;
    location    "222";
    object      p;
}
// * * * * * * * * * * * * * * * * * * * * * * * * * * * * * * * * * * * * * //

dimensions      [0 2 -2 0 0 0 0];

internalField   nonuniform List<scalar> 
1568
(
3.10668e-14
5.25538e-14
1.05804e-13
1.06817e-13
1.24642e-13
1.53771e-13
1.61294e-13
1.71246e-13
1.83277e-13
1.9253e-13
2.00981e-13
2.10195e-13
2.1944e-13
2.2811e-13
2.3658e-13
2.45409e-13
2.54116e-13
2.63182e-13
2.72168e-13
2.81753e-13
2.91186e-13
3.013e-13
3.10778e-13
3.18208e-13
3.23546e-13
3.31801e-13
3.44033e-13
3.61896e-13
3.79559e-13
3.95562e-13
4.05725e-13
4.12811e-13
4.17897e-13
4.26571e-13
4.35739e-13
4.45782e-13
4.54266e-13
4.63946e-13
4.72416e-13
4.81154e-13
4.89026e-13
4.97604e-13
5.0528e-13
5.13799e-13
5.21924e-13
5.30695e-13
5.39319e-13
5.48662e-13
5.58464e-13
5.69281e-13
5.80762e-13
5.95913e-13
6.14553e-13
6.29351e-13
6.63492e-13
6.94411e-13
4.92083e-14
-1.91729e-13
3.44367e-13
1.78285e-13
3.11762e-14
2.02857e-13
1.86357e-13
1.68528e-13
1.98289e-13
2.13555e-13
2.1579e-13
2.22925e-13
2.32577e-13
2.3985e-13
2.49285e-13
2.58816e-13
2.66804e-13
2.76993e-13
2.85894e-13
2.95568e-13
3.03063e-13
3.1424e-13
3.21741e-13
3.32337e-13
3.38665e-13
3.51196e-13
3.57014e-13
3.67336e-13
3.68148e-13
3.84748e-13
3.91554e-13
4.03292e-13
4.04421e-13
4.1744e-13
4.22298e-13
4.36879e-13
4.39529e-13
4.52726e-13
4.57019e-13
4.66622e-13
4.73283e-13
4.86604e-13
4.91642e-13
5.00501e-13
5.06252e-13
5.16839e-13
5.24027e-13
5.34316e-13
5.43566e-13
5.58388e-13
5.71827e-13
5.84421e-13
6.11266e-13
5.83413e-13
6.72687e-13
6.78667e-13
9.41908e-14
1.95145e-13
-3.05086e-14
8.44151e-14
1.17429e-13
1.7986e-13
1.53437e-13
1.67165e-13
1.86016e-13
1.78349e-13
1.98485e-13
2.15934e-13
2.18113e-13
2.26224e-13
2.36389e-13
2.40673e-13
2.49725e-13
2.58004e-13
2.67721e-13
2.75193e-13
2.85287e-13
2.95536e-13
3.09681e-13
3.1935e-13
3.32787e-13
3.39788e-13
3.50426e-13
3.60765e-13
3.75181e-13
3.82174e-13
3.93376e-13
4.08012e-13
4.31484e-13
4.41465e-13
4.50583e-13
4.56422e-13
4.69214e-13
4.73207e-13
4.826e-13
4.90315e-13
4.93239e-13
4.92131e-13
5.03585e-13
5.1075e-13
5.21387e-13
5.29504e-13
5.38777e-13
5.49239e-13
5.58672e-13
5.65997e-13
5.7634e-13
5.67675e-13
6.40884e-13
6.25466e-13
6.29022e-13
6.55282e-13
9.6141e-14
1.78159e-13
2.08425e-13
1.33425e-13
2.10504e-13
2.3091e-13
1.95499e-13
2.18791e-13
2.5087e-13
2.54823e-13
2.54264e-13
2.59216e-13
2.68955e-13
2.807e-13
2.84771e-13
2.94248e-13
3.0239e-13
3.07987e-13
3.12131e-13
3.21892e-13
3.2711e-13
3.32479e-13
3.35243e-13
3.41351e-13
3.45222e-13
3.53296e-13
3.59248e-13
3.68619e-13
3.75231e-13
3.83477e-13
3.86741e-13
3.85978e-13
3.83996e-13
3.86242e-13
3.93179e-13
4.00012e-13
4.06687e-13
4.15207e-13
4.20427e-13
4.306e-13
4.41718e-13
4.54535e-13
4.6161e-13
4.68577e-13
4.7524e-13
4.83072e-13
4.88573e-13
4.99848e-13
5.12737e-13
5.20415e-13
5.41816e-13
5.58591e-13
5.6548e-13
5.46453e-13
6.39538e-13
6.37746e-13
1.13132e-13
6.01285e-14
1.47394e-13
1.53344e-13
2.03851e-13
1.97477e-13
1.93626e-13
2.1925e-13
2.30133e-13
2.35876e-13
2.43022e-13
2.523e-13
2.59758e-13
2.65192e-13
2.70893e-13
2.79236e-13
2.8685e-13
2.94951e-13
3.0262e-13
3.09921e-13
3.16372e-13
3.23022e-13
3.30065e-13
3.37656e-13
3.43816e-13
3.51471e-13
3.58799e-13
3.64532e-13
3.70754e-13
3.78262e-13
3.86485e-13
3.94143e-13
4.00871e-13
4.07474e-13
4.16833e-13
4.23859e-13
4.28904e-13
4.35766e-13
4.42212e-13
4.47861e-13
4.53194e-13
4.59025e-13
4.644e-13
4.71042e-13
4.78402e-13
4.86436e-13
4.95536e-13
5.045e-13
5.1005e-13
5.28062e-13
5.4283e-13
5.16496e-13
5.76229e-13
6.10117e-13
5.82615e-13
6.11541e-13
1.48712e-13
1.69336e-13
1.9348e-13
2.08761e-13
1.99639e-13
1.87769e-13
2.15173e-13
2.36845e-13
2.32246e-13
2.36633e-13
2.48635e-13
2.58283e-13
2.6446e-13
2.7188e-13
2.79941e-13
2.85245e-13
2.9003e-13
2.95958e-13
3.02653e-13
3.07972e-13
3.1434e-13
3.22243e-13
3.2963e-13
3.36436e-13
3.43116e-13
3.49269e-13
3.56628e-13
3.64415e-13
3.71698e-13
3.79092e-13
3.85983e-13
3.93547e-13
4.02571e-13
4.09916e-13
4.15284e-13
4.21043e-13
4.27182e-13
4.33774e-13
4.40228e-13
4.46465e-13
4.52102e-13
4.58251e-13
4.65006e-13
4.70824e-13
4.78247e-13
4.85527e-13
4.90968e-13
5.01653e-13
5.11884e-13
5.10036e-13
5.28581e-13
5.5349e-13
5.49667e-13
5.14392e-13
5.92195e-13
5.92265e-13
1.71044e-13
2.02142e-13
2.05723e-13
2.068e-13
2.15055e-13
2.27413e-13
2.46107e-13
2.54591e-13
2.57827e-13
2.6504e-13
2.74269e-13
2.79967e-13
2.84515e-13
2.90399e-13
2.96374e-13
3.02211e-13
3.08002e-13
3.13099e-13
3.18307e-13
3.2411e-13
3.29818e-13
3.34599e-13
3.39379e-13
3.4455e-13
3.50229e-13
3.55604e-13
3.61212e-13
3.66598e-13
3.72314e-13
3.77585e-13
3.81286e-13
3.84873e-13
3.89873e-13
3.94483e-13
3.986e-13
4.03486e-13
4.0989e-13
4.15129e-13
4.20237e-13
4.26164e-13
4.32711e-13
4.38903e-13
4.44857e-13
4.50847e-13
4.57683e-13
4.63601e-13
4.69645e-13
4.79207e-13
4.8388e-13
4.93285e-13
5.13532e-13
4.9344e-13
5.3042e-13
5.66014e-13
5.51681e-13
5.6479e-13
1.91404e-13
2.00484e-13
2.0443e-13
2.14735e-13
2.39809e-13
2.50267e-13
2.54608e-13
2.58363e-13
2.66859e-13
2.73142e-13
2.80795e-13
2.86435e-13
2.91682e-13
2.97028e-13
3.01998e-13
3.0732e-13
3.12675e-13
3.17624e-13
3.22515e-13
3.27508e-13
3.32129e-13
3.36944e-13
3.41498e-13
3.46327e-13
3.51117e-13
3.56178e-13
3.60726e-13
3.6543e-13
3.70556e-13
3.75446e-13
3.80981e-13
3.86337e-13
3.90038e-13
3.94369e-13
3.99996e-13
4.05016e-13
4.09317e-13
4.13848e-13
4.18146e-13
4.2286e-13
4.27439e-13
4.31695e-13
4.36166e-13
4.41338e-13
4.46778e-13
4.51885e-13
4.56706e-13
4.66069e-13
4.74242e-13
4.75996e-13
4.88652e-13
5.01051e-13
5.09518e-13
4.81848e-13
5.36787e-13
5.41648e-13
2.1684e-13
2.25381e-13
2.38575e-13
2.47998e-13
2.63298e-13
2.59493e-13
2.6579e-13
2.74057e-13
2.80074e-13
2.86594e-13
2.92308e-13
2.95053e-13
3.00564e-13
3.06385e-13
3.10651e-13
3.14736e-13
3.18729e-13
3.23059e-13
3.27424e-13
3.31255e-13
3.35263e-13
3.40385e-13
3.44589e-13
3.48683e-13
3.52945e-13
3.57171e-13
3.6143e-13
3.65833e-13
3.70193e-13
3.74239e-13
3.79083e-13
3.83855e-13
3.88347e-13
3.92608e-13
3.97022e-13
4.00953e-13
4.04702e-13
4.08577e-13
4.12683e-13
4.16699e-13
4.20697e-13
4.24926e-13
4.29191e-13
4.33273e-13
4.38051e-13
4.43237e-13
4.48401e-13
4.55139e-13
4.58474e-13
4.64924e-13
4.81391e-13
4.65787e-13
4.89701e-13
5.08106e-13
5.03946e-13
5.14543e-13
2.44284e-13
2.57843e-13
2.63011e-13
2.68858e-13
2.8071e-13
2.75168e-13
2.86694e-13
2.95769e-13
2.96514e-13
3.0162e-13
3.07524e-13
3.10903e-13
3.14809e-13
3.18815e-13
3.2191e-13
3.25824e-13
3.29252e-13
3.32462e-13
3.35698e-13
3.39913e-13
3.42899e-13
3.45664e-13
3.49045e-13
3.52651e-13
3.55744e-13
3.59148e-13
3.63019e-13
3.66882e-13
3.70223e-13
3.73699e-13
3.76507e-13
3.79465e-13
3.82658e-13
3.86144e-13
3.89252e-13
3.92141e-13
3.95657e-13
3.99324e-13
4.02692e-13
4.05948e-13
4.09441e-13
4.13207e-13
4.16583e-13
4.2042e-13
4.24948e-13
4.28919e-13
4.32154e-13
4.38767e-13
4.43626e-13
4.45177e-13
4.56803e-13
4.56701e-13
4.73509e-13
4.58204e-13
4.84529e-13
4.89586e-13
2.70557e-13
2.81373e-13
2.79798e-13
2.88534e-13
3.00437e-13
2.95218e-13
3.04676e-13
3.11588e-13
3.12746e-13
3.16125e-13
3.1952e-13
3.23951e-13
3.2678e-13
3.291e-13
3.32059e-13
3.35147e-13
3.38149e-13
3.40797e-13
3.43388e-13
3.45746e-13
3.4872e-13
3.50891e-13
3.53552e-13
3.55662e-13
3.58205e-13
3.60813e-13
3.64135e-13
3.67021e-13
3.69939e-13
3.72605e-13
3.74665e-13
3.77036e-13
3.79585e-13
3.82003e-13
3.84512e-13
3.87032e-13
3.89627e-13
3.92164e-13
3.94698e-13
3.97303e-13
4.00048e-13
4.02704e-13
4.0526e-13
4.08179e-13
4.11715e-13
4.14326e-13
4.17428e-13
4.23566e-13
4.25035e-13
4.26723e-13
4.42891e-13
4.32797e-13
4.40463e-13
4.50372e-13
4.58751e-13
4.62532e-13
2.97863e-13
3.0738e-13
3.03198e-13
3.10046e-13
3.21465e-13
3.1559e-13
3.22442e-13
3.26933e-13
3.27017e-13
3.30377e-13
3.3365e-13
3.35555e-13
3.36833e-13
3.3945e-13
3.42712e-13
3.43849e-13
3.45343e-13
3.47546e-13
3.49994e-13
3.51145e-13
3.53404e-13
3.55633e-13
3.57936e-13
3.60127e-13
3.63002e-13
3.64776e-13
3.65612e-13
3.65868e-13
3.67206e-13
3.69443e-13
3.72209e-13
3.74703e-13
3.76529e-13
3.78235e-13
3.80062e-13
3.824e-13
3.84145e-13
3.85853e-13
3.87678e-13
3.89542e-13
3.91356e-13
3.93589e-13
3.95519e-13
3.97437e-13
4.00235e-13
4.02011e-13
4.03707e-13
4.08234e-13
4.10414e-13
4.11635e-13
4.18369e-13
4.11356e-13
4.31687e-13
4.2501e-13
4.26478e-13
4.35309e-13
3.25203e-13
3.32858e-13
3.29266e-13
3.33731e-13
3.41811e-13
3.35118e-13
3.40553e-13
3.43948e-13
3.42732e-13
3.44742e-13
3.48572e-13
3.49555e-13
3.49459e-13
3.51216e-13
3.52671e-13
3.5346e-13
3.54629e-13
3.56008e-13
3.57232e-13
3.58327e-13
3.591e-13
3.60342e-13
3.60724e-13
3.60938e-13
3.61556e-13
3.63268e-13
3.65643e-13
3.68652e-13
3.7062e-13
3.70804e-13
3.70993e-13
3.7185e-13
3.7293e-13
3.74357e-13
3.75492e-13
3.7596e-13
3.77355e-13
3.78647e-13
3.79698e-13
3.80756e-13
3.81888e-13
3.83181e-13
3.84202e-13
3.8502e-13
3.87096e-13
3.88561e-13
3.89063e-13
3.93626e-13
3.93352e-13
3.89858e-13
4.05752e-13
3.99428e-13
3.93791e-13
3.91602e-13
4.12607e-13
4.09073e-13
3.53119e-13
3.58819e-13
3.52766e-13
3.56713e-13
3.62466e-13
3.54686e-13
3.58645e-13
3.61237e-13
3.5958e-13
3.60113e-13
3.61588e-13
3.61692e-13
3.61893e-13
3.62561e-13
3.62219e-13
3.62858e-13
3.6375e-13
3.6382e-13
3.63804e-13
3.64551e-13
3.65032e-13
3.65598e-13
3.66426e-13
3.68016e-13
3.68403e-13
3.68382e-13
3.67184e-13
3.66154e-13
3.66215e-13
3.67382e-13
3.68243e-13
3.69011e-13
3.69146e-13
3.69424e-13
3.70281e-13
3.70291e-13
3.70978e-13
3.71248e-13
3.71425e-13
3.72046e-13
3.72517e-13
3.72822e-13
3.73175e-13
3.73358e-13
3.74175e-13
3.74886e-13
3.74391e-13
3.75998e-13
3.76436e-13
3.78276e-13
3.79962e-13
3.62298e-13
3.92981e-13
3.86909e-13
3.7305e-13
3.80356e-13
3.80621e-13
3.8429e-13
3.76845e-13
3.78838e-13
3.83695e-13
3.74366e-13
3.76963e-13
3.78404e-13
3.7551e-13
3.75355e-13
3.74873e-13
3.74063e-13
3.73915e-13
3.73308e-13
3.73012e-13
3.72687e-13
3.72087e-13
3.71361e-13
3.71203e-13
3.71091e-13
3.70641e-13
3.70044e-13
3.70285e-13
3.70759e-13
3.70464e-13
3.69423e-13
3.6846e-13
3.6675e-13
3.65893e-13
3.66375e-13
3.66586e-13
3.66245e-13
3.65958e-13
3.65234e-13
3.64953e-13
3.65095e-13
3.64502e-13
3.63919e-13
3.63749e-13
3.63269e-13
3.62943e-13
3.62613e-13
3.62478e-13
3.61923e-13
3.6176e-13
3.60868e-13
3.59892e-13
3.62032e-13
3.59856e-13
3.53148e-13
3.64608e-13
3.62369e-13
3.51936e-13
3.28677e-13
3.64783e-13
3.54442e-13
4.09133e-13
4.15098e-13
4.00858e-13
4.00481e-13
4.05299e-13
3.93949e-13
3.95383e-13
3.95438e-13
3.9119e-13
3.90239e-13
3.88642e-13
3.86759e-13
3.8591e-13
3.84546e-13
3.83605e-13
3.82286e-13
3.80894e-13
3.80013e-13
3.78923e-13
3.77323e-13
3.76084e-13
3.75354e-13
3.73242e-13
3.70682e-13
3.68842e-13
3.68061e-13
3.69015e-13
3.70002e-13
3.69555e-13
3.67571e-13
3.65008e-13
3.63485e-13
3.62825e-13
3.61945e-13
3.60304e-13
3.59343e-13
3.57887e-13
3.57103e-13
3.56161e-13
3.54762e-13
3.53665e-13
3.52677e-13
3.50951e-13
3.49632e-13
3.49032e-13
3.47623e-13
3.45312e-13
3.44374e-13
3.43207e-13
3.44366e-13
3.39745e-13
3.17711e-13
3.54176e-13
3.43135e-13
3.22375e-13
3.25127e-13
4.36301e-13
4.36436e-13
4.23821e-13
4.23673e-13
4.26628e-13
4.12869e-13
4.13581e-13
4.12586e-13
4.07108e-13
4.04956e-13
4.02867e-13
4.00052e-13
3.97808e-13
3.95702e-13
3.93442e-13
3.91233e-13
3.89314e-13
3.87435e-13
3.85394e-13
3.83475e-13
3.81601e-13
3.79928e-13
3.78323e-13
3.77442e-13
3.76048e-13
3.73885e-13
3.70635e-13
3.67347e-13
3.64955e-13
3.636e-13
3.62219e-13
3.61029e-13
3.58948e-13
3.57187e-13
3.55275e-13
3.53755e-13
3.51764e-13
3.50053e-13
3.47926e-13
3.46255e-13
3.44335e-13
3.42708e-13
3.40225e-13
3.38072e-13
3.36266e-13
3.33876e-13
3.30399e-13
3.31342e-13
3.26567e-13
3.1568e-13
3.26866e-13
3.25919e-13
3.02082e-13
2.76181e-13
3.17332e-13
3.00239e-13
4.64497e-13
4.67636e-13
4.49541e-13
4.45474e-13
4.48073e-13
4.32557e-13
4.31933e-13
4.29831e-13
4.23112e-13
4.19787e-13
4.17153e-13
4.13459e-13
4.10178e-13
4.0711e-13
4.043e-13
4.01496e-13
3.98792e-13
3.95743e-13
3.93206e-13
3.90483e-13
3.8804e-13
3.84741e-13
3.8215e-13
3.78967e-13
3.7653e-13
3.73645e-13
3.71833e-13
3.6887e-13
3.66793e-13
3.63601e-13
3.61314e-13
3.57938e-13
3.5562e-13
3.52377e-13
3.50476e-13
3.47286e-13
3.45241e-13
3.4213e-13
3.40051e-13
3.36827e-13
3.34549e-13
3.31365e-13
3.28999e-13
3.25501e-13
3.23228e-13
3.19994e-13
3.16518e-13
3.12625e-13
3.09744e-13
3.09651e-13
3.01215e-13
2.73895e-13
3.13821e-13
3.02849e-13
2.65963e-13
2.70845e-13
4.91366e-13
4.88319e-13
4.73104e-13
4.65865e-13
4.68402e-13
4.51388e-13
4.4921e-13
4.46164e-13
4.38209e-13
4.34163e-13
4.30384e-13
4.25952e-13
4.21355e-13
4.18045e-13
4.14089e-13
4.10994e-13
4.0677e-13
4.03952e-13
3.99817e-13
3.97069e-13
3.92739e-13
3.90181e-13
3.85918e-13
3.83104e-13
3.7866e-13
3.76223e-13
3.7205e-13
3.69878e-13
3.65581e-13
3.63077e-13
3.58356e-13
3.55847e-13
3.5173e-13
3.49342e-13
3.45018e-13
3.42605e-13
3.38475e-13
3.36073e-13
3.31933e-13
3.29332e-13
3.25196e-13
3.22666e-13
3.18269e-13
3.14746e-13
3.11005e-13
3.07016e-13
3.01173e-13
3.00875e-13
2.93878e-13
2.78424e-13
2.90979e-13
2.89054e-13
2.55384e-13
2.2297e-13
2.67738e-13
2.47378e-13
5.18409e-13
5.15995e-13
4.98575e-13
4.84837e-13
4.87223e-13
4.68339e-13
4.64787e-13
4.60771e-13
4.5205e-13
4.46197e-13
4.41742e-13
4.36246e-13
4.31473e-13
4.26864e-13
4.22386e-13
4.1752e-13
4.13459e-13
4.09255e-13
4.05236e-13
4.00981e-13
3.96918e-13
3.93174e-13
3.88674e-13
3.85023e-13
3.80602e-13
3.77146e-13
3.72546e-13
3.69255e-13
3.64343e-13
3.61159e-13
3.56486e-13
3.53816e-13
3.49065e-13
3.46228e-13
3.41192e-13
3.38338e-13
3.33077e-13
3.30374e-13
3.25343e-13
3.22436e-13
3.17186e-13
3.14291e-13
3.08718e-13
3.0558e-13
3.00689e-13
2.97083e-13
2.9039e-13
2.85221e-13
2.78061e-13
2.82197e-13
2.65363e-13
2.25497e-13
2.79662e-13
2.72067e-13
2.14806e-13
2.18023e-13
5.44625e-13
5.3746e-13
5.2196e-13
5.05651e-13
5.10676e-13
4.89122e-13
4.8319e-13
4.77948e-13
4.68909e-13
4.61744e-13
4.57235e-13
4.49635e-13
4.45179e-13
4.37968e-13
4.3567e-13
4.28171e-13
4.26219e-13
4.17415e-13
4.16569e-13
4.07543e-13
4.07328e-13
3.97262e-13
3.97713e-13
3.87404e-13
3.88289e-13
3.76962e-13
3.78383e-13
3.66135e-13
3.68022e-13
3.56073e-13
3.58481e-13
3.46048e-13
3.48625e-13
3.36556e-13
3.39717e-13
3.2712e-13
3.29757e-13
3.17584e-13
3.2002e-13
3.07879e-13
3.09785e-13
2.98034e-13
2.98787e-13
2.88367e-13
2.89334e-13
2.78264e-13
2.75074e-13
2.68679e-13
2.66803e-13
2.3993e-13
2.49023e-13
2.65248e-13
2.18416e-13
1.5697e-13
2.26651e-13
1.96763e-13
5.69804e-13
5.56951e-13
5.4729e-13
5.16971e-13
5.23221e-13
5.05684e-13
4.96671e-13
4.91764e-13
4.81284e-13
4.75478e-13
4.67289e-13
4.62493e-13
4.54807e-13
4.50822e-13
4.41645e-13
4.37848e-13
4.29592e-13
4.27556e-13
4.18075e-13
4.16274e-13
4.06422e-13
4.05386e-13
3.95614e-13
3.94144e-13
3.84264e-13
3.83039e-13
3.73293e-13
3.72254e-13
3.62314e-13
3.61057e-13
3.50243e-13
3.48256e-13
3.37681e-13
3.35363e-13
3.25767e-13
3.2539e-13
3.17225e-13
3.15365e-13
3.07278e-13
3.05919e-13
2.98885e-13
2.97526e-13
2.89515e-13
2.85104e-13
2.76381e-13
2.71353e-13
2.65076e-13
2.59743e-13
2.46556e-13
2.47837e-13
2.43307e-13
1.82336e-13
2.36444e-13
2.38144e-13
1.76088e-13
1.68675e-13
5.93854e-13
5.79574e-13
5.63336e-13
5.3946e-13
5.37047e-13
5.16639e-13
5.08225e-13
5.01871e-13
4.885e-13
4.82465e-13
4.73524e-13
4.68548e-13
4.56677e-13
4.54442e-13
4.42702e-13
4.42932e-13
4.28669e-13
4.30946e-13
4.15711e-13
4.20038e-13
4.02615e-13
4.09175e-13
3.89227e-13
3.98145e-13
3.76878e-13
3.87855e-13
3.65243e-13
3.77812e-13
3.53336e-13
3.66953e-13
3.41207e-13
3.55968e-13
3.30137e-13
3.45883e-13
3.18921e-13
3.34634e-13
3.0691e-13
3.23349e-13
2.98209e-13
3.12968e-13
2.87033e-13
3.01059e-13
2.76812e-13
2.87958e-13
2.67405e-13
2.76138e-13
2.51285e-13
2.56663e-13
2.40186e-13
2.32933e-13
2.10443e-13
2.32268e-13
2.06741e-13
1.33433e-13
1.75465e-13
1.4865e-13
6.18815e-13
6.13962e-13
5.81186e-13
5.75071e-13
5.65836e-13
5.41149e-13
5.37666e-13
5.26363e-13
5.15984e-13
5.05064e-13
5.02007e-13
4.8885e-13
4.87391e-13
4.7411e-13
4.75433e-13
4.59661e-13
4.63221e-13
4.43795e-13
4.50465e-13
4.27896e-13
4.37667e-13
4.12204e-13
4.23979e-13
3.96256e-13
4.09478e-13
3.79608e-13
3.93242e-13
3.60583e-13
3.76285e-13
3.42326e-13
3.59637e-13
3.26159e-13
3.44437e-13
3.11508e-13
3.30258e-13
2.96187e-13
3.14651e-13
2.83316e-13
2.97341e-13
2.67944e-13
2.82653e-13
2.53551e-13
2.64879e-13
2.3983e-13
2.50124e-13
2.26653e-13
2.31022e-13
2.15395e-13
2.16268e-13
1.95487e-13
2.0311e-13
1.63329e-13
1.52299e-13
1.93735e-13
1.19885e-13
1.21372e-13
6.41566e-13
6.25326e-13
5.73367e-13
5.75678e-13
5.69427e-13
5.47443e-13
5.41289e-13
5.32792e-13
5.22084e-13
5.12619e-13
5.05124e-13
4.95414e-13
4.89523e-13
4.78544e-13
4.72118e-13
4.60466e-13
4.57183e-13
4.4399e-13
4.42184e-13
4.28115e-13
4.27887e-13
4.1295e-13
4.14329e-13
3.96772e-13
3.99971e-13
3.81536e-13
3.86269e-13
3.65429e-13
3.6971e-13
3.45985e-13
3.47757e-13
3.18906e-13
3.20512e-13
2.96898e-13
3.07455e-13
2.88639e-13
3.00052e-13
2.75719e-13
2.90936e-13
2.74123e-13
2.87199e-13
2.6622e-13
2.74334e-13
2.51744e-13
2.58009e-13
2.37077e-13
2.43447e-13
2.24442e-13
2.23274e-13
1.99634e-13
2.08943e-13
1.87291e-13
1.79127e-13
1.50801e-13
1.25516e-13
1.02331e-13
6.6527e-13
6.63262e-13
6.32737e-13
6.03577e-13
5.90871e-13
5.62308e-13
5.45047e-13
5.38446e-13
5.21968e-13
5.15579e-13
5.00928e-13
4.98749e-13
4.8225e-13
4.8506e-13
4.66046e-13
4.72738e-13
4.49775e-13
4.60795e-13
4.32436e-13
4.47983e-13
4.13519e-13
4.32542e-13
3.93465e-13
4.19374e-13
3.76817e-13
4.04774e-13
3.56871e-13
3.86878e-13
3.36263e-13
3.73032e-13
3.27426e-13
3.77208e-13
3.33748e-13
3.74316e-13
3.15571e-13
3.49748e-13
2.92334e-13
3.27749e-13
2.75899e-13
2.96722e-13
2.41304e-13
2.72874e-13
2.29482e-13
2.55649e-13
2.17676e-13
2.3722e-13
1.99221e-13
2.13587e-13
1.85452e-13
1.87155e-13
1.55276e-13
1.37511e-13
1.35961e-13
1.0529e-13
8.24344e-14
7.867e-14
6.85146e-13
6.55356e-13
6.37711e-13
6.00977e-13
5.92502e-13
5.81143e-13
5.70447e-13
5.57598e-13
5.47032e-13
5.37275e-13
5.30156e-13
5.19735e-13
5.12195e-13
5.01937e-13
4.96056e-13
4.84687e-13
4.7812e-13
4.66453e-13
4.60324e-13
4.47625e-13
4.42439e-13
4.29685e-13
4.23351e-13
4.08299e-13
4.01915e-13
3.87512e-13
3.83802e-13
3.70327e-13
3.67795e-13
3.52733e-13
3.47001e-13
3.26372e-13
3.17356e-13
3.00857e-13
2.98015e-13
2.84899e-13
2.82972e-13
2.69677e-13
2.64406e-13
2.56037e-13
2.55536e-13
2.44111e-13
2.37501e-13
2.27196e-13
2.21705e-13
2.11147e-13
2.03744e-13
1.95918e-13
1.86279e-13
1.72428e-13
1.64405e-13
1.53062e-13
1.39629e-13
1.01098e-13
9.58331e-14
6.06579e-14
7.00191e-13
6.64698e-13
6.34828e-13
6.14126e-13
5.98216e-13
5.83328e-13
5.70581e-13
5.59191e-13
5.49079e-13
5.3929e-13
5.30296e-13
5.21091e-13
5.12701e-13
5.03603e-13
4.95347e-13
4.86023e-13
4.77781e-13
4.68131e-13
4.59748e-13
4.49544e-13
4.40963e-13
4.30258e-13
4.22167e-13
4.14535e-13
4.10429e-13
4.0165e-13
3.90554e-13
3.71772e-13
3.54943e-13
3.38414e-13
3.30161e-13
3.23193e-13
3.20087e-13
3.10836e-13
3.03348e-13
2.92546e-13
2.85186e-13
2.74913e-13
2.67582e-13
2.57913e-13
2.50916e-13
2.4142e-13
2.3452e-13
2.255e-13
2.18345e-13
2.09104e-13
2.01167e-13
1.91444e-13
1.821e-13
1.70482e-13
1.58617e-13
1.44406e-13
1.28836e-13
1.07983e-13
7.93131e-14
4.41675e-14
)
;

boundaryField
{
    top
    {
        type            zeroGradient;
    }
    bottom
    {
        type            zeroGradient;
    }
    rotatingWall
    {
        type            zeroGradient;
    }
    wall
    {
        type            zeroGradient;
    }
    frontAndBack
    {
        type            empty;
    }
}


// ************************************************************************* //
