/*--------------------------------*- C++ -*----------------------------------*\
| =========                 |                                                 |
| \\      /  F ield         | OpenFOAM: The Open Source CFD Toolbox           |
|  \\    /   O peration     | Version:  5.0                                   |
|   \\  /    A nd           | Web:      www.OpenFOAM.org                      |
|    \\/     M anipulation  |                                                 |
\*---------------------------------------------------------------------------*/
FoamFile
{
    version     2.0;
    format      ascii;
    class       volVectorField;
    location    "2.7";
    object      U;
}
// * * * * * * * * * * * * * * * * * * * * * * * * * * * * * * * * * * * * * //

dimensions      [0 1 -1 0 0 0 0];

internalField   nonuniform List<vector> 
50
(
(0.986277 0.00422366 6.14975e-23)
(0.985385 -7.5786e-06 -4.39737e-23)
(0.984007 1.69975e-06 -4.61725e-23)
(0.985873 5.92009e-05 -4.61322e-23)
(0.981194 -0.00205175 3.29813e-23)
(0.985368 0.00241454 9.08007e-23)
(0.939611 0.000871303 1.29202e-23)
(0.937442 0.000170077 -4.53927e-23)
(0.936087 0.000102581 5.20772e-24)
(0.93283 -0.00212485 8.52187e-24)
(0.786148 0.00347633 -8.95568e-37)
(0.789623 -3.97316e-05 4.68478e-23)
(0.787758 3.1881e-05 5.35656e-26)
(0.789576 0.000249042 -3.73613e-23)
(0.786648 -0.00135348 -4.09476e-23)
(0.789872 0.00554132 -3.46575e-23)
(0.796566 0.00403346 -5.9465e-23)
(0.797959 0.000736759 6.57432e-23)
(0.798567 0.000340126 6.53928e-24)
(0.795583 -0.000823545 -1.48581e-22)
(0.589211 -8.74198e-05 -2.58732e-23)
(0.592921 0.000195234 -2.95068e-26)
(0.5913 3.30837e-05 2.75384e-23)
(0.592747 3.51428e-05 -5.57491e-23)
(0.591119 0.000274308 -5.46201e-23)
(0.593506 0.00254877 4.8144e-23)
(0.610723 0.00306307 4.06496e-23)
(0.613773 0.000478132 3.03819e-23)
(0.614966 2.75274e-05 -1.23589e-24)
(0.613648 -0.000456757 -5.72661e-23)
(0.39513 -0.00265941 -1.44185e-22)
(0.395006 0.00031342 3.13506e-23)
(0.394706 2.28964e-05 -4.12014e-23)
(0.39527 -9.55465e-05 -1.58892e-23)
(0.395296 0.00143894 -5.21575e-23)
(0.396744 -0.00059088 1.2299e-22)
(0.405155 0.0011393 1.18357e-23)
(0.407871 0.000148281 -2.58053e-24)
(0.407954 -0.000237201 -2.14726e-23)
(0.410056 0.00278345 -1.85502e-22)
(0.200824 -0.0113056 3.64524e-23)
(0.197127 4.40568e-05 1.57045e-23)
(0.19813 1.62444e-05 -4.94728e-23)
(0.197813 -2.83341e-06 -1.50658e-23)
(0.199138 0.00565553 3.40528e-23)
(0.199603 -0.0051668 7.95381e-25)
(0.200866 0.000632836 1.65037e-23)
(0.202405 0.000111791 1.10192e-24)
(0.20125 -1.56482e-05 0)
(0.205537 0.0115103 0)
)
;

boundaryField
{
    top
    {
        type            fixedValue;
        value           uniform (0 0 0);
    }
    bottom
    {
        type            symmetryPlane;
    }
    inlet
    {
        type            pressureInletVelocity;
        value           nonuniform List<vector> 5((0.987142 0 0) (0.785401 0 0) (0.587912 0 0) (0.394959 0 0) (0.202756 0 0));
    }
    outlet
    {
        type            inletOutlet;
        inletValue      uniform (1 0 0);
        value           nonuniform List<vector> 5((0.93283 -0.00212485 8.52187e-24) (0.795583 -0.000823545 -1.48581e-22) (0.613648 -0.000456757 -5.72661e-23) (0.410056 0.00278345 -1.85502e-22) (0.205537 0.0115103 0));
    }
    frontAndBack
    {
        type            empty;
    }
}


// ************************************************************************* //
