/*--------------------------------*- C++ -*----------------------------------*\
| =========                 |                                                 |
| \\      /  F ield         | OpenFOAM: The Open Source CFD Toolbox           |
|  \\    /   O peration     | Version:  5.0                                   |
|   \\  /    A nd           | Web:      www.OpenFOAM.org                      |
|    \\/     M anipulation  |                                                 |
\*---------------------------------------------------------------------------*/
FoamFile
{
    version     2.0;
    format      ascii;
    class       surfaceScalarField;
    location    "308";
    object      phi;
}
// * * * * * * * * * * * * * * * * * * * * * * * * * * * * * * * * * * * * * //

dimensions      [0 3 -1 0 0 0 0];

internalField   nonuniform List<scalar> 
3052
(
3.7465e-23
-5.50792e-23
1.53084e-22
-1.15673e-22
3.51027e-22
-1.98803e-22
5.87977e-22
-2.3795e-22
8.5968e-22
-2.72612e-22
1.17001e-21
-3.11077e-22
1.50412e-21
-3.34728e-22
1.85684e-21
-3.5328e-22
2.22507e-21
-3.68747e-22
2.60291e-21
-3.78303e-22
2.98518e-21
-3.82703e-22
3.368e-21
-3.83231e-22
3.7475e-21
-3.79895e-22
4.1197e-21
-3.72565e-22
4.48115e-21
-3.61811e-22
4.82872e-21
-3.47918e-22
5.15936e-21
-3.30961e-22
5.47042e-21
-3.11353e-22
5.75936e-21
-2.89221e-22
6.02405e-21
-2.64938e-22
6.26241e-21
-2.38579e-22
6.47281e-21
-2.10594e-22
6.65364e-21
-1.80995e-22
6.8031e-21
-1.49594e-22
6.92097e-21
-1.17972e-22
7.00736e-21
-8.64714e-23
7.0597e-21
-5.23812e-23
7.07719e-21
-1.74965e-23
7.05998e-21
1.72361e-23
7.00805e-21
5.20066e-23
6.92202e-21
8.615e-23
6.80454e-21
1.17648e-22
6.65537e-21
1.49379e-22
6.475e-21
1.80626e-22
6.26503e-21
2.10247e-22
6.02726e-21
2.38082e-22
5.76292e-21
2.64666e-22
5.47452e-21
2.88741e-22
5.16388e-21
3.10993e-22
4.83362e-21
3.30613e-22
4.48638e-21
3.47593e-22
4.1254e-21
3.6133e-22
3.75354e-21
3.72226e-22
3.37451e-21
3.79391e-22
2.99197e-21
3.82934e-22
2.6101e-21
3.8227e-22
2.23311e-21
3.77405e-22
1.86579e-21
3.67761e-22
1.51296e-21
3.53311e-22
1.18013e-21
3.3325e-22
8.7339e-22
3.07202e-22
5.9939e-22
2.74525e-22
3.65064e-22
2.34755e-22
1.77631e-22
1.87909e-22
5.33563e-23
1.24673e-22
5.34086e-23
5.30461e-23
-1.07992e-22
1.64933e-22
-2.29793e-22
3.22169e-22
-3.58943e-22
5.35683e-22
-4.54352e-22
7.94229e-22
-5.33656e-22
1.07728e-21
-5.96268e-22
1.38616e-21
-6.45455e-22
1.71573e-21
-6.84484e-22
2.058e-21
-7.12505e-22
2.40893e-21
-7.30615e-22
2.76492e-21
-7.39975e-22
3.1215e-21
-7.41026e-22
3.4746e-21
-7.34141e-22
3.82096e-21
-7.20027e-22
4.15741e-21
-6.99299e-22
4.4808e-21
-6.72292e-22
4.78846e-21
-6.39542e-22
5.07785e-21
-6.01588e-22
5.34668e-21
-5.58818e-22
5.59279e-21
-5.1173e-22
5.81437e-21
-4.60766e-22
6.00971e-21
-4.06445e-22
6.17743e-21
-3.49142e-22
6.31691e-21
-2.89415e-22
6.42751e-21
-2.28824e-22
6.50759e-21
-1.66709e-22
6.55655e-21
-1.01402e-22
6.57317e-21
-3.40756e-23
6.55698e-21
3.35958e-23
6.50829e-21
1.0099e-22
6.42845e-21
1.66413e-22
6.31817e-21
2.2848e-22
6.17914e-21
2.89068e-22
6.01181e-21
3.48728e-22
5.8168e-21
4.06106e-22
5.59549e-21
4.6031e-22
5.34982e-21
5.11314e-22
5.08129e-21
5.58286e-22
4.79225e-21
6.01055e-22
4.48498e-21
6.38924e-22
4.16194e-21
6.71682e-22
3.82572e-21
6.98617e-22
3.47963e-21
7.19412e-22
3.12678e-21
7.3339e-22
2.77069e-21
7.40227e-22
2.415e-21
7.39182e-22
2.06392e-21
7.29817e-22
1.72173e-21
7.11347e-22
1.39323e-21
6.83118e-22
1.08376e-21
6.44209e-22
7.98431e-22
5.94037e-22
5.43542e-22
5.30737e-22
3.27398e-22
4.52432e-22
1.59472e-22
3.5707e-22
4.5907e-23
2.39457e-22
9.93796e-23
2.91124e-23
-1.3769e-22
1.34312e-22
-3.36479e-22
2.85499e-22
-5.12091e-22
4.82759e-22
-6.53654e-22
7.13912e-22
-7.66719e-22
9.76644e-22
-8.60664e-22
1.26326e-21
-9.33505e-22
1.56732e-21
-9.89815e-22
1.88432e-21
-1.03064e-21
2.20992e-21
-1.05724e-21
2.53972e-21
-1.07073e-21
2.86982e-21
-1.07201e-21
3.19702e-21
-1.06217e-21
3.51798e-21
-1.04177e-21
3.82955e-21
-1.0116e-21
4.12903e-21
-9.72441e-22
4.41395e-21
-9.25068e-22
4.68182e-21
-8.70018e-22
4.93063e-21
-8.08111e-22
5.15843e-21
-7.39963e-22
5.36357e-21
-6.66279e-22
5.54447e-21
-5.87655e-22
5.69998e-21
-5.04895e-22
5.82912e-21
-4.18756e-22
5.93051e-21
-3.30333e-22
6.00302e-21
-2.39291e-22
6.04682e-21
-1.45202e-22
6.0616e-21
-4.87869e-23
6.04705e-21
4.82874e-23
6.00356e-21
1.44684e-22
5.93145e-21
2.38815e-22
5.83038e-21
3.29893e-22
5.7015e-21
4.18371e-22
5.54627e-21
5.04433e-22
5.36576e-21
5.87148e-22
5.16093e-21
6.65711e-22
4.93348e-21
7.39386e-22
4.68497e-21
8.07455e-22
4.4174e-21
8.6931e-22
4.13275e-21
9.24296e-22
3.83356e-21
9.71614e-22
3.52227e-21
1.01069e-21
3.20169e-21
1.04081e-21
2.8747e-21
1.06124e-21
2.54473e-21
1.0711e-21
2.21519e-21
1.06971e-21
1.88991e-21
1.0561e-21
1.57304e-21
1.02926e-21
1.26904e-21
9.88357e-22
9.82386e-22
9.31953e-22
7.19553e-22
8.57969e-22
4.86353e-22
7.65287e-22
2.88545e-22
6.51236e-22
1.35296e-22
5.11712e-22
3.6209e-23
3.39335e-22
1.35641e-22
2.9615e-23
-1.6736e-22
1.18528e-22
-4.26199e-22
2.52109e-22
-6.46851e-22
4.28698e-22
-8.3159e-22
6.41604e-22
-9.80922e-22
8.80622e-22
-1.10086e-21
1.14254e-21
-1.19645e-21
1.42164e-21
-1.26979e-21
1.71274e-21
-1.32251e-21
2.01179e-21
-1.35698e-21
2.31513e-21
-1.3747e-21
2.61902e-21
-1.37647e-21
2.91998e-21
-1.36364e-21
3.21514e-21
-1.3374e-21
3.50176e-21
-1.29864e-21
3.77727e-21
-1.24832e-21
4.03923e-21
-1.18736e-21
4.28563e-21
-1.11669e-21
4.51444e-21
-1.03717e-21
4.72393e-21
-9.49649e-22
4.91249e-21
-8.55009e-22
5.07883e-21
-7.54135e-22
5.22174e-21
-6.47906e-22
5.34013e-21
-5.37216e-22
5.43273e-21
-4.22963e-22
5.49885e-21
-3.05406e-22
5.53848e-21
-1.84798e-22
5.55181e-21
-6.20439e-23
5.53882e-21
6.13698e-23
5.49943e-21
1.84191e-22
5.43354e-21
3.04837e-22
5.34117e-21
4.22412e-22
5.2231e-21
5.36609e-22
5.08043e-21
6.47308e-22
4.91432e-21
7.53486e-22
4.72594e-21
8.54352e-22
4.51673e-21
9.48887e-22
4.28815e-21
1.03637e-21
4.04204e-21
1.1158e-21
3.78035e-21
1.1864e-21
3.50512e-21
1.24731e-21
3.2187e-21
1.29762e-21
2.92373e-21
1.33633e-21
2.62299e-21
1.36258e-21
2.31942e-21
1.37533e-21
2.01633e-21
1.37347e-21
1.71731e-21
1.35586e-21
1.42611e-21
1.32133e-21
1.14709e-21
1.26814e-21
8.85339e-22
1.19464e-21
6.45056e-22
1.09928e-21
4.31793e-22
9.79289e-22
2.54282e-22
8.29809e-22
1.1896e-22
6.47777e-22
3.24467e-23
4.26755e-22
1.6813e-22
2.89461e-23
-1.96476e-22
1.01874e-22
-4.99505e-22
2.23955e-22
-7.69564e-22
3.8142e-22
-9.89847e-22
5.71353e-22
-1.1717e-21
7.8761e-22
-1.31792e-21
1.0249e-21
-1.43448e-21
1.27801e-21
-1.52353e-21
1.54275e-21
-1.58781e-21
1.81525e-21
-1.62997e-21
2.09147e-21
-1.65135e-21
2.36823e-21
-1.65361e-21
2.64262e-21
-1.63837e-21
2.91177e-21
-1.60684e-21
3.17307e-21
-1.56019e-21
3.42423e-21
-1.49969e-21
3.66307e-21
-1.42637e-21
3.88764e-21
-1.3414e-21
4.09614e-21
-1.24579e-21
4.28702e-21
-1.14062e-21
4.45884e-21
-1.02689e-21
4.61033e-21
-9.05684e-22
4.74035e-21
-7.77953e-22
4.84793e-21
-6.44805e-22
4.93208e-21
-5.07093e-22
4.99229e-21
-3.65586e-22
5.02842e-21
-2.20873e-22
5.04054e-21
-7.4102e-23
5.02859e-21
7.33929e-23
4.99269e-21
2.20172e-22
4.93272e-21
3.64875e-22
4.84878e-21
5.0641e-22
4.74135e-21
6.44105e-22
4.61149e-21
7.7723e-22
4.46019e-21
9.04879e-22
4.2886e-21
1.02605e-21
4.0979e-21
1.13972e-21
3.88962e-21
1.24482e-21
3.66524e-21
1.3404e-21
3.42658e-21
1.42533e-21
3.17562e-21
1.49858e-21
2.91457e-21
1.55904e-21
2.64563e-21
1.60569e-21
2.37143e-21
1.63723e-21
2.09476e-21
1.65249e-21
1.81863e-21
1.65016e-21
1.54631e-21
1.62878e-21
1.28165e-21
1.58658e-21
1.02846e-21
1.52211e-21
7.90516e-22
1.43332e-21
5.73648e-22
1.31676e-21
3.83851e-22
1.16994e-21
2.24248e-22
9.90002e-22
1.0265e-22
7.70361e-22
2.60202e-23
5.03809e-22
1.94182e-22
2.18685e-23
-2.18293e-22
9.00957e-23
-5.67917e-22
1.95578e-22
-8.75397e-22
3.35918e-22
-1.13069e-21
5.04679e-22
-1.34104e-21
6.97778e-22
-1.51161e-21
9.09985e-22
-1.64723e-21
1.13691e-21
-1.75095e-21
1.37475e-21
-1.82608e-21
1.61971e-21
-1.87532e-21
1.86835e-21
-1.90033e-21
2.11773e-21
-1.90328e-21
2.365e-21
-1.88589e-21
2.60755e-21
-1.84959e-21
2.8431e-21
-1.79591e-21
3.06947e-21
-1.7262e-21
3.28476e-21
-1.64177e-21
3.48715e-21
-1.54388e-21
3.67507e-21
-1.43377e-21
3.84703e-21
-1.31264e-21
4.00179e-21
-1.18169e-21
4.13817e-21
-1.04208e-21
4.2552e-21
-8.94988e-22
4.35194e-21
-7.41542e-22
4.42769e-21
-5.82821e-22
4.48193e-21
-4.19787e-22
4.51454e-21
-2.53431e-22
4.52545e-21
-8.49491e-23
4.51466e-21
8.42393e-23
4.48219e-21
2.52708e-22
4.42806e-21
4.19052e-22
4.35245e-21
5.82053e-22
4.25585e-21
7.40736e-22
4.13899e-21
8.94133e-22
4.00272e-21
1.04118e-21
3.8481e-21
1.18073e-21
3.67625e-21
1.31165e-21
3.48847e-21
1.43272e-21
3.28624e-21
1.54279e-21
3.07113e-21
1.64065e-21
2.84492e-21
1.72505e-21
2.6095e-21
1.79476e-21
2.36709e-21
1.84844e-21
2.11999e-21
1.88472e-21
1.87074e-21
1.90217e-21
1.62215e-21
1.89919e-21
1.37736e-21
1.87409e-21
1.13939e-21
1.82514e-21
9.12063e-22
1.74998e-21
7.00063e-22
1.64592e-21
5.06724e-22
1.51081e-21
3.36148e-22
1.34099e-21
1.96034e-22
1.13077e-21
9.09034e-23
8.75838e-22
2.45268e-23
5.70781e-22
2.18733e-22
1.9479e-23
-2.37865e-22
7.83822e-23
-6.27022e-22
1.70226e-22
-9.67538e-22
2.92588e-22
-1.25344e-21
4.40602e-22
-1.4895e-21
6.10272e-22
-1.68175e-21
7.97311e-22
-1.83473e-21
9.97936e-22
-1.95201e-21
1.2085e-21
-2.03705e-21
1.42552e-21
-2.09268e-21
1.64609e-21
-2.12122e-21
1.86746e-21
-2.12491e-21
2.08701e-21
-2.10566e-21
2.30247e-21
-2.06525e-21
2.51174e-21
-2.00535e-21
2.71289e-21
-1.92748e-21
2.90416e-21
-1.83316e-21
3.08399e-21
-1.7238e-21
3.25092e-21
-1.60079e-21
3.40369e-21
-1.46546e-21
3.54112e-21
-1.31917e-21
3.66221e-21
-1.1632e-21
3.76606e-21
-9.98863e-22
3.8519e-21
-8.27387e-22
3.91912e-21
-6.5003e-22
3.9673e-21
-4.6794e-22
3.99627e-21
-2.82358e-22
4.00598e-21
-9.46021e-23
3.99638e-21
9.38948e-23
3.96749e-21
2.81654e-22
3.91938e-21
4.67223e-22
3.85223e-21
6.49266e-22
3.76645e-21
8.26585e-22
3.66265e-21
9.97998e-22
3.54161e-21
1.16229e-21
3.40424e-21
1.3182e-21
3.25155e-21
1.46444e-21
3.0847e-21
1.59972e-21
2.90497e-21
1.72269e-21
2.71381e-21
1.83202e-21
2.51278e-21
1.92633e-21
2.30364e-21
2.00418e-21
2.0883e-21
2.06408e-21
1.86886e-21
2.10451e-21
1.64763e-21
2.12378e-21
1.4271e-21
2.12015e-21
1.20999e-21
2.09168e-21
9.99498e-22
2.03609e-21
7.9894e-22
1.9511e-21
6.11213e-22
1.83421e-21
4.40992e-22
1.68145e-21
2.93357e-22
1.48913e-21
1.7052e-22
1.25396e-21
7.74124e-23
9.69584e-22
1.95775e-23
6.28766e-22
2.38325e-22
1.76048e-23
-2.55499e-22
6.67229e-23
-6.76412e-22
1.45746e-22
-1.04685e-21
2.50676e-22
-1.35871e-21
3.78332e-22
-1.61754e-21
5.25006e-22
-1.82883e-21
6.86948e-22
-1.99709e-21
8.6093e-22
-2.12639e-21
1.04384e-21
-2.22032e-21
1.23262e-21
-2.2818e-21
1.42468e-21
-2.31356e-21
1.61749e-21
-2.31798e-21
1.80885e-21
-2.29723e-21
1.9967e-21
-2.25329e-21
2.17918e-21
-2.18799e-21
2.3546e-21
-2.10304e-21
2.52143e-21
-2.00011e-21
2.67826e-21
-1.88073e-21
2.82383e-21
-1.74645e-21
2.95703e-21
-1.59873e-21
3.07685e-21
-1.43904e-21
3.18239e-21
-1.26879e-21
3.27289e-21
-1.08938e-21
3.34769e-21
-9.02206e-22
3.40628e-21
-7.08623e-22
3.44832e-21
-5.09967e-22
3.47361e-21
-3.0761e-22
3.48204e-21
-1.02987e-22
3.47361e-21
1.02384e-22
3.44835e-21
3.0699e-22
3.40633e-21
5.09324e-22
3.34775e-21
7.07942e-22
3.27295e-21
9.01478e-22
3.18247e-21
1.08859e-21
3.07695e-21
1.26793e-21
2.95716e-21
1.43812e-21
2.82401e-21
1.59774e-21
2.67849e-21
1.74541e-21
2.52172e-21
1.87965e-21
2.35496e-21
1.99899e-21
2.17962e-21
2.10191e-21
1.99722e-21
2.18684e-21
1.80945e-21
2.25214e-21
1.61817e-21
2.29611e-21
1.4254e-21
2.31691e-21
1.2334e-21
2.31253e-21
1.04468e-21
2.28081e-21
8.61756e-22
2.21949e-21
6.87491e-22
2.1258e-21
5.25646e-22
1.99647e-21
3.79022e-22
1.82855e-21
2.50369e-22
1.61811e-21
1.45188e-22
1.35948e-21
6.69598e-23
1.04789e-21
1.77819e-23
6.783e-22
2.56118e-22
1.44635e-23
-2.70099e-22
5.57685e-23
-7.17973e-22
1.22039e-22
-1.11339e-21
2.10309e-22
-1.44727e-21
3.17856e-22
-1.72541e-21
4.41526e-22
-1.95283e-21
5.78427e-22
-2.13432e-21
7.2576e-22
-2.27405e-21
8.80765e-22
-2.37563e-21
1.04096e-21
-2.44227e-21
1.20409e-21
-2.47694e-21
1.36798e-21
-2.48209e-21
1.53069e-21
-2.46013e-21
1.69046e-21
-2.41323e-21
1.84571e-21
-2.34338e-21
1.99498e-21
-2.25243e-21
2.13692e-21
-2.14215e-21
2.27035e-21
-2.01425e-21
2.39421e-21
-1.87037e-21
2.50753e-21
-1.71211e-21
2.60943e-21
-1.54099e-21
2.69919e-21
-1.35858e-21
2.77614e-21
-1.16637e-21
2.83977e-21
-9.65847e-22
2.88961e-21
-7.58473e-22
2.92539e-21
-5.45729e-22
2.9469e-21
-3.29095e-22
2.95406e-21
-1.10106e-22
2.94685e-21
1.09659e-22
2.92529e-21
3.28627e-22
2.88948e-21
5.45213e-22
2.83961e-21
7.57907e-22
2.77596e-21
9.65225e-22
2.69897e-21
1.16569e-21
2.6092e-21
1.35782e-21
2.50728e-21
1.54017e-21
2.39395e-21
1.71121e-21
2.27011e-21
1.86941e-21
2.1367e-21
2.01323e-21
1.99479e-21
2.14108e-21
1.84558e-21
2.25133e-21
1.69038e-21
2.34226e-21
1.53065e-21
2.41212e-21
1.36801e-21
2.45902e-21
1.2042e-21
2.481e-21
1.04114e-21
2.47592e-21
8.80923e-22
2.44139e-21
7.25922e-22
2.37482e-21
5.78692e-22
2.2734e-21
4.41528e-22
2.13403e-21
3.17522e-22
1.95281e-21
2.10399e-22
1.72546e-21
1.22067e-22
1.448e-21
5.5388e-23
1.11494e-21
1.39968e-23
7.19661e-22
2.70119e-22
1.15505e-23
-2.81692e-22
4.52241e-23
-7.51892e-22
9.90808e-23
-1.16747e-21
1.70972e-22
-1.51939e-21
2.58574e-22
-1.81325e-21
3.59494e-22
-2.054e-21
4.71446e-22
-2.24652e-21
5.9207e-22
-2.39491e-21
7.19105e-22
-2.50289e-21
8.50528e-22
-2.5739e-21
9.84411e-22
-2.611e-21
1.11899e-21
-2.61682e-21
1.25265e-21
-2.59393e-21
1.38396e-21
-2.54466e-21
1.51157e-21
-2.47109e-21
1.63427e-21
-2.37521e-21
1.75095e-21
-2.25891e-21
1.86066e-21
-2.12402e-21
1.96248e-21
-1.97224e-21
2.05562e-21
-1.80528e-21
2.13938e-21
-1.62479e-21
2.21316e-21
-1.43238e-21
2.2764e-21
-1.22963e-21
2.32867e-21
-1.01813e-21
2.36962e-21
-7.99424e-22
2.39902e-21
-5.75108e-22
2.4167e-21
-3.46743e-22
2.42259e-21
-1.1595e-22
2.41664e-21
1.15659e-22
2.39889e-21
3.46443e-22
2.3694e-21
5.74772e-22
2.32834e-21
7.99035e-22
2.27599e-21
1.01766e-21
2.21268e-21
1.22909e-21
2.13885e-21
1.43176e-21
2.05502e-21
1.62409e-21
1.96184e-21
1.8045e-21
1.86e-21
1.97138e-21
1.75029e-21
2.12308e-21
1.63361e-21
2.25792e-21
1.51093e-21
2.37417e-21
1.38335e-21
2.47001e-21
1.25209e-21
2.54356e-21
1.11848e-21
2.59283e-21
9.8395e-22
2.61577e-21
8.50126e-22
2.61e-21
7.18813e-22
2.57297e-21
5.91833e-22
2.50211e-21
4.7117e-22
2.39435e-21
3.59274e-22
2.24613e-21
2.5849e-22
2.05384e-21
1.70545e-22
1.8136e-21
9.86018e-23
1.52004e-21
4.52216e-23
1.16823e-21
1.19168e-23
7.5316e-22
2.82038e-22
9.04222e-24
-2.90841e-22
3.50387e-23
-7.78036e-22
7.66548e-23
-1.20924e-21
1.3234e-22
-1.57523e-21
2.00303e-22
-1.88137e-21
2.78777e-22
-2.13264e-21
3.65861e-22
-2.33378e-21
4.5972e-22
-2.48894e-21
5.5866e-22
-2.60199e-21
6.6109e-22
-2.67647e-21
7.65506e-22
-2.71554e-21
8.70483e-22
-2.72191e-21
9.74791e-22
-2.69833e-21
1.0773e-21
-2.64725e-21
1.17695e-21
-2.5708e-21
1.27275e-21
-2.47107e-21
1.36387e-21
-2.35007e-21
1.44953e-21
-2.2097e-21
1.52903e-21
-2.05177e-21
1.60176e-21
-1.87803e-21
1.66716e-21
-1.6902e-21
1.72473e-21
-1.48996e-21
1.77409e-21
-1.27899e-21
1.8149e-21
-1.05892e-21
1.84689e-21
-8.31396e-22
1.86984e-21
-5.98041e-22
1.88364e-21
-3.60507e-22
1.88819e-21
-1.20464e-22
1.88349e-21
1.20403e-22
1.86958e-21
3.60401e-22
1.84652e-21
5.97883e-22
1.81443e-21
8.31178e-22
1.77351e-21
1.05864e-21
1.72404e-21
1.27863e-21
1.66636e-21
1.48951e-21
1.60088e-21
1.68965e-21
1.52809e-21
1.87738e-21
1.44854e-21
2.05103e-21
1.36285e-21
2.20888e-21
1.27171e-21
2.34917e-21
1.1759e-21
2.4701e-21
1.07628e-21
2.56977e-21
9.73796e-22
2.64619e-21
8.69528e-22
2.69726e-21
7.64627e-22
2.72084e-21
6.60299e-22
2.71452e-21
5.57947e-22
2.67555e-21
4.59054e-22
2.6012e-21
3.65361e-22
2.48821e-21
2.78428e-22
2.3333e-21
1.99826e-22
2.13255e-21
1.31984e-22
1.88144e-21
7.65595e-23
1.57553e-21
3.48733e-23
1.21009e-21
8.88414e-24
7.78989e-22
2.90919e-22
6.38049e-24
-2.97217e-22
2.49431e-23
-7.96687e-22
5.4666e-23
-1.23903e-21
9.44319e-23
-1.61507e-21
1.42984e-22
-1.93e-21
1.99034e-22
-2.18878e-21
2.61242e-22
-2.39608e-21
3.28357e-22
-2.55615e-21
3.99181e-22
-2.6729e-21
4.72482e-22
-2.74985e-21
5.47246e-22
-2.79037e-21
6.22405e-22
-2.79712e-21
6.97145e-22
-2.77312e-21
7.70604e-22
-2.72075e-21
8.42005e-22
-2.64223e-21
9.10651e-22
-2.53974e-21
9.75947e-22
-2.41538e-21
1.03732e-21
-2.27108e-21
1.09428e-21
-2.10873e-21
1.14638e-21
-1.93012e-21
1.19323e-21
-1.73704e-21
1.23448e-21
-1.5312e-21
1.26985e-21
-1.31434e-21
1.29908e-21
-1.08812e-21
1.32198e-21
-8.54262e-22
1.33839e-21
-6.14422e-22
1.34825e-21
-3.70335e-22
1.35149e-21
-1.23681e-22
1.34811e-21
1.23818e-22
1.33809e-21
3.70454e-22
1.3215e-21
6.14503e-22
1.29845e-21
8.54263e-22
1.26909e-21
1.08804e-21
1.23361e-21
1.31416e-21
1.19224e-21
1.53093e-21
1.14529e-21
1.73666e-21
1.09309e-21
1.92964e-21
1.03606e-21
2.10813e-21
9.74628e-22
2.27038e-21
9.093e-22
2.41457e-21
8.40633e-22
2.53885e-21
7.69235e-22
2.64126e-21
6.95795e-22
2.71973e-21
6.21111e-22
2.77205e-21
5.46026e-22
2.79605e-21
4.71333e-22
2.78935e-21
3.98168e-22
2.74884e-21
3.27537e-22
2.67198e-21
2.60465e-22
2.55545e-21
1.98278e-22
2.39551e-21
1.42567e-22
2.18832e-21
9.42599e-23
1.92984e-21
5.43256e-23
1.61537e-21
2.46614e-23
1.23953e-21
6.25396e-24
7.97456e-22
2.97167e-22
3.84822e-24
-3.01114e-22
1.5072e-23
-8.07886e-22
3.30166e-23
-1.25697e-21
5.69632e-23
-1.63901e-21
8.61887e-23
-1.95923e-21
1.19893e-22
-2.22249e-21
1.57301e-22
-2.4335e-21
1.9767e-22
-2.59654e-21
2.40336e-22
-2.71559e-21
2.84591e-22
-2.79412e-21
3.29398e-22
-2.8352e-21
3.74569e-22
-2.8423e-21
4.1967e-22
-2.81822e-21
4.63937e-22
-2.76502e-21
5.06859e-22
-2.68515e-21
5.48136e-22
-2.58101e-21
5.87404e-22
-2.45464e-21
6.24325e-22
-2.30799e-21
6.58586e-22
-2.14298e-21
6.89929e-22
-1.96144e-21
7.18101e-22
-1.76519e-21
7.4291e-22
-1.55598e-21
7.64158e-22
-1.33555e-21
7.81718e-22
-1.10564e-21
7.95468e-22
-8.67968e-22
8.05332e-22
-6.24248e-22
8.11227e-22
-3.76204e-22
8.1313e-22
-1.25564e-22
8.11034e-22
1.25929e-22
8.04961e-22
3.76543e-22
7.94942e-22
6.24539e-22
7.81031e-22
8.68194e-22
7.63307e-22
1.10579e-21
7.41899e-22
1.33559e-21
7.16956e-22
1.5559e-21
6.88658e-22
1.76499e-21
6.57211e-22
1.96112e-21
6.22854e-22
2.14252e-21
5.8586e-22
2.30741e-21
5.46542e-22
2.45394e-21
5.05233e-22
2.5802e-21
4.62301e-22
2.68424e-21
4.18061e-22
2.76403e-21
3.73005e-22
2.81717e-21
3.27895e-22
2.84122e-21
2.83228e-22
2.83409e-21
2.39111e-22
2.79306e-21
1.96526e-22
2.71463e-21
1.5639e-22
2.59558e-21
1.19353e-22
2.43265e-21
8.55749e-23
2.22207e-21
5.6252e-23
1.95897e-21
3.28021e-23
1.63878e-21
1.52204e-23
1.25711e-21
4.02186e-24
8.08385e-22
3.01178e-22
1.33355e-24
-3.02388e-22
5.28161e-24
-8.1176e-22
1.15199e-23
-1.26311e-21
1.97494e-23
-1.64716e-21
2.97006e-23
-1.96911e-21
4.11369e-23
-2.23387e-21
5.37809e-23
-2.44609e-21
6.73527e-23
-2.61006e-21
8.15415e-23
-2.72973e-21
9.62573e-23
-2.8088e-21
1.11562e-22
-2.85046e-21
1.27449e-22
-2.85815e-21
1.42672e-22
-2.83341e-21
1.57204e-22
-2.77951e-21
1.71471e-22
-2.69938e-21
1.85285e-22
-2.59479e-21
1.98433e-22
-2.46775e-21
2.10793e-22
-2.32031e-21
2.22261e-22
-2.1544e-21
2.32751e-22
-1.97189e-21
2.4217e-22
-1.77456e-21
2.50456e-22
-1.56421e-21
2.57555e-22
-1.34259e-21
2.6342e-22
-1.11145e-21
2.67988e-22
-8.72485e-22
2.7124e-22
-6.27463e-22
2.73153e-22
-3.78092e-22
2.73725e-22
-1.26123e-22
2.72949e-22
1.26713e-22
2.70832e-22
3.78663e-22
2.67389e-22
6.27988e-22
2.62641e-22
8.72946e-22
2.56625e-22
1.11181e-21
2.49368e-22
1.34285e-21
2.40938e-22
1.56434e-21
2.31372e-22
1.77456e-21
2.20767e-22
1.97173e-21
2.09189e-22
2.15411e-21
1.96743e-22
2.31987e-21
1.83528e-22
2.46716e-21
1.69679e-22
2.59406e-21
1.55391e-22
2.69854e-21
1.40881e-22
2.77855e-21
1.25702e-22
2.83236e-21
1.09897e-22
2.85705e-21
9.46933e-23
2.84932e-21
8.01188e-23
2.80763e-21
6.62182e-23
2.72855e-21
5.27979e-23
2.60904e-21
4.00579e-23
2.44525e-21
2.90661e-23
2.23296e-21
1.96938e-23
1.96832e-21
1.11912e-23
1.64699e-21
4.74075e-24
1.26321e-21
9.05126e-25
8.12149e-22
3.0207e-22
-1.09399e-24
-3.01288e-22
-4.40049e-24
-8.08251e-22
-9.88934e-24
-1.25744e-21
-1.73907e-23
-1.63948e-21
-2.66526e-23
-1.95969e-21
-3.74524e-23
-2.22292e-21
-4.95326e-23
-2.43388e-21
-6.25861e-23
-2.59689e-21
-7.63205e-23
-2.71589e-21
-9.0627e-23
-2.79439e-21
-1.05551e-22
-2.83544e-21
-1.21087e-22
-2.84253e-21
-1.35993e-22
-2.81841e-21
-1.50238e-22
-2.76518e-21
-1.64256e-22
-2.68528e-21
-1.77845e-22
-2.58112e-21
-1.90807e-22
-2.45472e-21
-2.0301e-22
-2.30804e-21
-2.14357e-22
-2.14299e-21
-2.24759e-22
-1.96142e-21
-2.34115e-22
-1.76513e-21
-2.42361e-22
-1.55589e-21
-2.49442e-22
-1.33544e-21
-2.55321e-22
-1.1055e-21
-2.59952e-22
-8.67804e-22
-2.63312e-22
-6.24064e-22
-2.65378e-22
-3.76003e-22
-2.66137e-22
-1.25349e-22
-2.65583e-22
1.26167e-22
-2.63723e-22
3.76806e-22
-2.60565e-22
6.24827e-22
-2.56122e-22
8.685e-22
-2.50416e-22
1.1061e-21
-2.43491e-22
1.33592e-21
-2.35396e-22
1.55623e-21
-2.26185e-22
1.76534e-21
-2.15925e-22
1.96146e-21
-2.04691e-22
2.14286e-21
-1.92576e-22
2.30773e-21
-1.7969e-22
2.45425e-21
-1.66144e-22
2.58048e-21
-1.52147e-22
2.6845e-21
-1.37892e-22
2.76426e-21
-1.22941e-22
2.81738e-21
-1.07321e-22
2.84139e-21
-9.22634e-23
2.83421e-21
-7.77842e-23
2.79315e-21
-6.40012e-23
2.71469e-21
-5.07e-23
2.59558e-21
-3.80471e-23
2.43258e-21
-2.72847e-23
2.22203e-21
-1.83983e-23
1.95905e-21
-1.02085e-23
1.63866e-21
-4.17241e-24
1.25699e-21
-8.32302e-25
8.08434e-22
3.0122e-22
-3.77726e-24
-2.97393e-22
-1.42209e-23
-7.97551e-22
-3.13832e-23
-1.24001e-21
-5.46029e-23
-1.61601e-21
-8.31603e-23
-1.93089e-21
-1.16283e-22
-2.18958e-21
-1.53172e-22
-2.39679e-21
-1.93065e-22
-2.55681e-21
-2.35301e-22
-2.67348e-21
-2.79162e-22
-2.75037e-21
-3.236e-22
-2.79085e-21
-3.68448e-22
-2.79754e-21
-4.13252e-22
-2.77348e-21
-4.57243e-22
-2.72107e-21
-4.99918e-22
-2.64249e-21
-5.40981e-22
-2.53995e-21
-5.80067e-22
-2.41553e-21
-6.16832e-22
-2.27118e-21
-6.50972e-22
-2.10876e-21
-6.82205e-22
-1.9301e-21
-7.10314e-22
-1.73694e-21
-7.35085e-22
-1.53104e-21
-7.56351e-22
-1.31411e-21
-7.73946e-22
-1.08785e-21
-7.87767e-22
-8.53936e-22
-7.97716e-22
-6.14075e-22
-8.03755e-22
-3.69937e-22
-8.05834e-22
-1.23248e-22
-8.03961e-22
1.243e-22
-7.98111e-22
3.70958e-22
-7.88346e-22
6.15051e-22
-7.74705e-22
8.54846e-22
-7.57305e-22
1.08867e-21
-7.36217e-22
1.31481e-21
-7.11621e-22
1.53161e-21
-6.83643e-22
1.73732e-21
-6.52541e-22
1.93031e-21
-6.18512e-22
2.10878e-21
-5.81853e-22
2.27102e-21
-5.42836e-22
2.41517e-21
-5.01834e-22
2.53941e-21
-4.59172e-22
2.64176e-21
-4.15186e-22
2.72018e-21
-3.70333e-22
2.77242e-21
-3.25404e-22
2.79637e-21
-2.8088e-22
2.78961e-21
-2.36891e-22
2.749e-21
-1.94316e-22
2.672e-21
-1.54269e-22
2.55547e-21
-1.17602e-22
2.3956e-21
-8.39769e-23
2.18814e-21
-5.45792e-23
1.92953e-21
-3.1765e-23
1.61535e-21
-1.5007e-23
1.23976e-21
-4.25621e-24
7.97466e-22
2.96942e-22
-6.10656e-24
-2.91218e-22
-2.3998e-23
-7.79253e-22
-5.3023e-23
-1.21061e-21
-9.21442e-23
-1.57653e-21
-1.40087e-22
-1.88262e-21
-1.95591e-22
-2.13377e-21
-2.57349e-22
-2.33475e-21
-3.24075e-22
-2.48983e-21
-3.94509e-22
-2.60281e-21
-4.67475e-22
-2.67719e-21
-5.41924e-22
-2.7162e-21
-6.16787e-22
-2.72249e-21
-6.91237e-22
-2.69884e-21
-7.64459e-22
-2.64768e-21
-8.35622e-22
-2.57116e-21
-9.04082e-22
-2.47135e-21
-9.69182e-22
-2.35028e-21
-1.03043e-21
-2.20981e-21
-1.08725e-21
-2.05181e-21
-1.13929e-21
-1.87796e-21
-1.18606e-21
-1.69006e-21
-1.22729e-21
-1.48974e-21
-1.26262e-21
-1.27869e-21
-1.29189e-21
-1.05852e-21
-1.31483e-21
-8.30933e-22
-1.33137e-21
-5.975e-22
-1.34134e-21
-3.59935e-22
-1.34474e-21
-1.19832e-22
-1.3415e-21
1.21078e-22
-1.33173e-21
3.61173e-22
-1.31539e-21
5.98704e-22
-1.29264e-21
8.32064e-22
-1.26354e-21
1.05955e-21
-1.22836e-21
1.27959e-21
-1.18727e-21
1.49048e-21
-1.14066e-21
1.69064e-21
-1.08876e-21
1.87836e-21
-1.03205e-21
2.05199e-21
-9.70901e-22
2.20979e-21
-9.05882e-22
2.35004e-21
-8.37476e-22
2.4709e-21
-7.6635e-22
2.5705e-21
-6.93128e-22
2.64683e-21
-6.18657e-22
2.69781e-21
-5.43731e-22
2.72129e-21
-4.69145e-22
2.71482e-21
-3.96016e-22
2.67576e-21
-3.25586e-22
2.60138e-21
-2.58642e-22
2.48818e-21
-1.96161e-22
2.33299e-21
-1.40814e-22
2.13251e-21
-9.34606e-23
1.88157e-21
-5.35205e-23
1.57514e-21
-2.37169e-23
1.20956e-21
-5.82099e-24
7.79076e-22
2.91095e-22
-8.948e-24
-2.82084e-22
-3.41036e-23
-7.53623e-22
-7.50545e-23
-1.16919e-21
-1.30144e-22
-1.521e-21
-1.97651e-22
-1.8147e-21
-2.75668e-22
-2.05537e-21
-3.6237e-22
-2.2477e-21
-4.55918e-22
-2.39596e-21
-5.54581e-22
-2.50386e-21
-6.56724e-22
-2.57477e-21
-7.60882e-22
-2.61179e-21
-8.65598e-22
-2.61753e-21
-9.69685e-22
-2.59455e-21
-1.07197e-21
-2.54519e-21
-1.17141e-21
-2.47154e-21
-1.26703e-21
-2.37555e-21
-1.35799e-21
-2.25917e-21
-1.4435e-21
-2.12415e-21
-1.5229e-21
-1.97229e-21
-1.59552e-21
-1.80521e-21
-1.66086e-21
-1.62463e-21
-1.71842e-21
-1.43208e-21
-1.76779e-21
-1.22927e-21
-1.80861e-21
-1.01764e-21
-1.84062e-21
-7.98885e-22
-1.86363e-21
-5.74443e-22
-1.87752e-21
-3.46028e-22
-1.88223e-21
-1.15099e-22
-1.87771e-21
1.16547e-22
-1.86398e-21
3.47447e-22
-1.84111e-21
5.75802e-22
-1.80925e-21
8.00186e-22
-1.76858e-21
1.01883e-21
-1.71939e-21
1.23036e-21
-1.66197e-21
1.433e-21
-1.59679e-21
1.6254e-21
-1.52427e-21
1.80574e-21
-1.445e-21
1.97264e-21
-1.35957e-21
2.12424e-21
-1.26871e-21
2.25905e-21
-1.17313e-21
2.37516e-21
-1.07374e-21
2.47096e-21
-9.71452e-22
2.54436e-21
-8.67366e-22
2.59353e-21
-7.62575e-22
2.61629e-21
-6.58389e-22
2.61047e-21
-5.56135e-22
2.57324e-21
-4.57151e-22
2.50213e-21
-3.6343e-22
2.39434e-21
-2.77199e-22
2.24629e-21
-1.98639e-22
2.05348e-21
-1.29995e-22
1.81274e-21
-7.5521e-23
1.51998e-21
-3.52002e-23
1.16864e-21
-9.67015e-24
7.53189e-22
2.81397e-22
-1.13722e-23
-2.7057e-22
-4.42782e-23
-7.20135e-22
-9.74382e-23
-1.11547e-21
-1.68869e-22
-1.44906e-21
-2.56155e-22
-1.72695e-21
-3.56842e-22
-1.95426e-21
-4.68577e-22
-2.13557e-21
-5.88967e-22
-2.27521e-21
-7.15818e-22
-2.37667e-21
-8.47018e-22
-2.44326e-21
-9.80737e-22
-2.4778e-21
-1.1151e-21
-2.48291e-21
-1.24859e-21
-2.46082e-21
-1.37968e-21
-2.41389e-21
-1.50716e-21
-2.34387e-21
-1.62965e-21
-2.25287e-21
-1.74626e-21
-2.14241e-21
-1.85577e-21
-2.01448e-21
-1.95755e-21
-1.8704e-21
-2.05054e-21
-1.7121e-21
-2.13432e-21
-1.54078e-21
-2.20797e-21
-1.35835e-21
-2.27128e-21
-1.16591e-21
-2.32348e-21
-9.65377e-22
-2.36458e-21
-7.57772e-22
-2.39395e-21
-5.45038e-22
-2.4118e-21
-3.28179e-22
-2.41765e-21
-1.09225e-22
-2.41191e-21
1.10775e-22
-2.39417e-21
3.29709e-22
-2.36497e-21
5.46543e-22
-2.324e-21
7.59201e-22
-2.27197e-21
9.66733e-22
-2.20877e-21
1.16712e-21
-2.13529e-21
1.35943e-21
-2.0516e-21
1.54164e-21
-1.95877e-21
1.71279e-21
-1.85706e-21
1.87083e-21
-1.74768e-21
2.01471e-21
-1.6311e-21
2.14235e-21
-1.50872e-21
2.25261e-21
-1.38123e-21
2.34331e-21
-1.25021e-21
2.41313e-21
-1.11666e-21
2.45981e-21
-9.8233e-22
2.48175e-21
-8.48464e-22
2.47636e-21
-7.17179e-22
2.44174e-21
-5.90376e-22
2.37514e-21
-4.69913e-22
2.27339e-21
-3.57332e-22
2.13344e-21
-2.56787e-22
1.95265e-21
-1.70603e-22
1.72577e-21
-9.81869e-23
1.44723e-21
-4.38633e-23
1.1138e-21
-1.09463e-23
7.19732e-22
2.70423e-22
-1.42781e-23
-2.56061e-22
-5.48545e-23
-6.78927e-22
-1.20585e-22
-1.04914e-21
-2.08488e-22
-1.36059e-21
-3.15796e-22
-1.61911e-21
-4.39417e-22
-1.83016e-21
-5.76267e-22
-1.99827e-21
-7.23545e-22
-2.12752e-21
-8.78475e-22
-2.22136e-21
-1.03862e-21
-2.28278e-21
-1.20158e-21
-2.3145e-21
-1.36536e-21
-2.31885e-21
-1.5279e-21
-2.29801e-21
-1.68758e-21
-2.25398e-21
-1.84265e-21
-2.18857e-21
-1.99182e-21
-2.10353e-21
-2.1336e-21
-2.00044e-21
-2.26699e-21
-1.88097e-21
-2.3907e-21
-1.74653e-21
-2.504e-21
-1.59872e-21
-2.6058e-21
-1.43887e-21
-2.69559e-21
-1.26853e-21
-2.77246e-21
-1.08895e-21
-2.83613e-21
-9.01707e-22
-2.88591e-21
-7.07924e-22
-2.92177e-21
-5.0921e-22
-2.94325e-21
-3.06645e-22
-2.95054e-21
-1.01983e-22
-2.94334e-21
1.03602e-22
-2.92195e-21
3.08238e-22
-2.88619e-21
5.10784e-22
-2.83651e-21
7.0941e-22
-2.77295e-21
9.03137e-22
-2.69618e-21
1.0902e-21
-2.60651e-21
1.26969e-21
-2.50482e-21
1.43978e-21
-2.39165e-21
1.59951e-21
-2.26802e-21
1.74701e-21
-2.13472e-21
1.88129e-21
-1.993e-21
2.00043e-21
-1.8439e-21
2.10336e-21
-1.68887e-21
2.18806e-21
-1.52924e-21
2.25335e-21
-1.3667e-21
2.29704e-21
-1.20289e-21
2.31774e-21
-1.03991e-21
2.31316e-21
-8.79791e-22
2.28138e-21
-7.24544e-22
2.21951e-21
-5.77153e-22
2.12581e-21
-4.40939e-22
1.99679e-21
-3.1714e-22
1.82821e-21
-2.08246e-22
1.6167e-21
-1.21027e-22
1.35931e-21
-5.63385e-23
1.0485e-21
-1.53771e-23
6.78439e-22
2.55022e-22
-1.71371e-23
-2.38741e-22
-6.58279e-23
-6.29558e-22
-1.44427e-22
-9.69913e-22
-2.49366e-22
-1.25505e-21
-3.77054e-22
-1.49086e-21
-5.23744e-22
-1.68293e-21
-6.85801e-22
-1.83571e-21
-8.59914e-22
-1.95293e-21
-1.04279e-21
-2.03804e-21
-1.23161e-21
-2.09355e-21
-1.42358e-21
-2.12215e-21
-1.61639e-21
-2.12568e-21
-1.80759e-21
-2.10649e-21
-1.99542e-21
-2.06586e-21
-2.17773e-21
-2.00601e-21
-2.35317e-21
-1.92785e-21
-2.51978e-21
-1.83364e-21
-2.67665e-21
-1.72392e-21
-2.82201e-21
-1.60105e-21
-2.9553e-21
-1.46529e-21
-3.07488e-21
-1.3192e-21
-3.18056e-21
-1.16276e-21
-3.27082e-21
-9.9865e-22
-3.34581e-21
-8.26656e-22
-3.40415e-21
-6.49564e-22
-3.44641e-21
-4.66918e-22
-3.47143e-21
-2.8163e-22
-3.48013e-21
-9.3274e-23
-3.47144e-21
9.4873e-23
-3.44648e-21
2.83233e-22
-3.40423e-21
4.68416e-22
-3.346e-21
6.51062e-22
-3.27101e-21
8.2796e-22
-3.18094e-21
9.99947e-22
-3.07525e-21
1.16377e-21
-2.95589e-21
1.32019e-21
-2.82253e-21
1.46592e-21
-2.6774e-21
1.60166e-21
-2.52046e-21
1.72412e-21
-2.35407e-21
1.83384e-21
-2.17852e-21
1.9276e-21
-1.99643e-21
2.00578e-21
-1.80845e-21
2.06516e-21
-1.61743e-21
2.10581e-21
-1.42452e-21
2.12461e-21
-1.23269e-21
2.12106e-21
-1.04361e-21
2.09202e-21
-8.61081e-22
2.03674e-21
-6.86959e-22
1.95124e-21
-5.24216e-22
1.83361e-21
-3.77437e-22
1.68119e-21
-2.51188e-22
1.48974e-21
-1.45536e-22
1.25332e-21
-6.53749e-23
9.67962e-22
-1.61867e-23
6.28777e-22
2.38815e-22
-1.99339e-23
-2.18549e-22
-7.73725e-23
-5.71427e-22
-1.69279e-22
-8.77305e-22
-2.91749e-22
-1.13191e-21
-4.40098e-22
-1.34186e-21
-6.10114e-22
-1.51228e-21
-7.97525e-22
-1.6477e-21
-9.98276e-22
-1.7516e-21
-1.20896e-21
-1.82681e-21
-1.42605e-21
-1.87594e-21
-1.64673e-21
-1.901e-21
-1.86797e-21
-1.90399e-21
-2.0876e-21
-1.88646e-21
-2.30293e-21
-1.85016e-21
-2.51226e-21
-1.79636e-21
-2.7132e-21
-1.72661e-21
-2.90458e-21
-1.64202e-21
-3.08418e-21
-1.54408e-21