/*--------------------------------*- C++ -*----------------------------------*\
| =========                 |                                                 |
| \\      /  F ield         | OpenFOAM: The Open Source CFD Toolbox           |
|  \\    /   O peration     | Version:  5.0                                   |
|   \\  /    A nd           | Web:      www.OpenFOAM.org                      |
|    \\/     M anipulation  |                                                 |
\*---------------------------------------------------------------------------*/
FoamFile
{
    version     2.0;
    format      ascii;
    class       volVectorField;
    location    "4.1";
    object      U;
}
// * * * * * * * * * * * * * * * * * * * * * * * * * * * * * * * * * * * * * //

dimensions      [0 1 -1 0 0 0 0];

internalField   nonuniform List<vector> 
25
(
(0.986276 0.00422367 6.14974e-23)
(0.985385 -7.59135e-06 -4.39737e-23)
(0.984007 1.71944e-06 -4.61724e-23)
(0.985873 5.91793e-05 -4.61325e-23)
(0.981194 -0.00205175 3.29813e-23)
(0.786148 0.00347634 -8.95571e-37)
(0.789623 -3.97393e-05 4.6848e-23)
(0.787758 3.18928e-05 5.37345e-26)
(0.789576 0.000249024 -3.7362e-23)
(0.786648 -0.00135348 -4.09479e-23)
(0.589211 -8.74206e-05 -2.58733e-23)
(0.592921 0.000195234 -2.92918e-26)
(0.5913 3.30835e-05 2.75385e-23)
(0.592747 3.51385e-05 -5.57493e-23)
(0.591119 0.000274308 -5.46206e-23)
(0.39513 -0.00265942 -1.44185e-22)
(0.395006 0.000313424 3.13511e-23)
(0.394706 2.28887e-05 -4.12014e-23)
(0.39527 -9.55373e-05 -1.58898e-23)
(0.395296 0.00143894 -5.21571e-23)
(0.200824 -0.0113056 3.64524e-23)
(0.197127 4.40558e-05 1.57045e-23)
(0.19813 1.62463e-05 -4.94729e-23)
(0.197813 -2.83358e-06 -1.5066e-23)
(0.199138 0.00565553 3.40531e-23)
)
;

boundaryField
{
    top
    {
        type            fixedValue;
        value           uniform (0 0 0);
    }
    bottom
    {
        type            symmetryPlane;
    }
    inlet
    {
        type            pressureInletVelocity;
        value           nonuniform List<vector> 5((0.987142 -0 -0) (0.785401 -0 -0) (0.587912 -0 -0) (0.394959 -0 -0) (0.202756 -0 -0));
    }
    outlet
    {
        type            inletOutlet;
        inletValue      nonuniform 0();
        value           nonuniform 0();
    }
    frontAndBack
    {
        type            empty;
    }
    procBoundary0to1
    {
        type            processor;
        value           nonuniform List<vector> 5((0.985368 0.00241456 9.08011e-23) (0.789871 0.00554134 -3.46582e-23) (0.593506 0.00254877 4.81441e-23) (0.396744 -0.00059089 1.2299e-22) (0.199603 -0.0051668 7.95674e-25));
    }
}


// ************************************************************************* //
