/*--------------------------------*- C++ -*----------------------------------*\
| =========                 |                                                 |
| \\      /  F ield         | OpenFOAM: The Open Source CFD Toolbox           |
|  \\    /   O peration     | Version:  5.0                                   |
|   \\  /    A nd           | Web:      www.OpenFOAM.org                      |
|    \\/     M anipulation  |                                                 |
\*---------------------------------------------------------------------------*/
FoamFile
{
    version     2.0;
    format      ascii;
    class       surfaceScalarField;
    location    "266";
    object      phi;
}
// * * * * * * * * * * * * * * * * * * * * * * * * * * * * * * * * * * * * * //

dimensions      [0 3 -1 0 0 0 0];

internalField   nonuniform List<scalar> 
3052
(
1.50843e-22
-2.77693e-22
6.59901e-22
-5.35305e-22
1.59165e-21
-9.47683e-22
2.66314e-21
-1.09202e-21
3.8791e-21
-1.22797e-21
5.30482e-21
-1.43682e-21
6.83388e-21
-1.53688e-21
8.4418e-21
-1.61566e-21
1.01246e-20
-1.69286e-21
1.18526e-20
-1.73735e-21
1.35993e-20
-1.75522e-21
1.53486e-20
-1.75763e-21
1.70832e-20
-1.74276e-21
1.87842e-20
-1.70854e-21
2.04355e-20
-1.65956e-21
2.20235e-20
-1.59601e-21
2.35336e-20
-1.51803e-21
2.49542e-20
-1.42796e-21
2.62731e-20
-1.32638e-21
2.74812e-20
-1.21488e-21
2.85682e-20
-1.09355e-21
2.9528e-20
-9.65043e-22
3.03519e-20
-8.28721e-22
3.10325e-20
-6.84141e-22
3.15676e-20
-5.38652e-22
3.19597e-20
-3.94813e-22
3.21954e-20
-2.37937e-22
3.22725e-20
-7.77581e-23
3.21894e-20
8.30603e-23
3.19487e-20
2.41432e-22
3.1552e-20
3.98498e-22
3.10131e-20
5.43052e-22
3.03284e-20
6.90466e-22
2.95028e-20
8.32859e-22
2.85416e-20
9.69041e-22
2.74551e-20
1.09531e-21
2.62462e-20
1.21734e-21
2.49291e-20
1.32622e-21
2.35102e-20
1.42817e-21
2.20023e-20
1.51688e-21
2.04165e-20
1.59335e-21
1.87695e-20
1.65436e-21
1.70725e-20
1.70368e-21
1.53441e-20
1.73551e-21
1.35999e-20
1.75129e-21
1.18605e-20
1.74734e-21
1.01437e-20
1.7248e-21
8.47198e-21
1.67985e-21
6.8673e-21
1.61419e-21
5.35434e-21
1.52121e-21
3.9591e-21
1.39985e-21
2.71655e-21
1.25274e-21
1.65772e-21
1.07157e-21
8.01109e-22
8.61369e-22
2.41436e-22
5.65376e-22
2.41911e-22
2.14641e-22
-5.18102e-22
7.33786e-22
-1.07569e-21
1.39417e-21
-1.68857e-21
2.37043e-21
-2.10213e-21
3.57638e-21
-2.46977e-21
4.867e-21
-2.75124e-21
6.27921e-21
-2.97103e-21
7.79045e-21
-3.15276e-21
9.35556e-21
-3.28163e-21
1.0958e-20
-3.36442e-21
1.2586e-20
-3.40664e-21
1.42175e-20
-3.41053e-21
1.58323e-20
-3.37806e-21
1.74149e-20
-3.31356e-21
1.89523e-20
-3.21832e-21
2.04291e-20
-3.09444e-21
2.18345e-20
-2.94359e-21
2.31556e-20
-2.76921e-21
2.4383e-20
-2.57179e-21
2.55055e-20
-2.35493e-21
2.65166e-20
-2.11927e-21
2.74068e-20
-1.86882e-21
2.8172e-20
-1.6035e-21
2.88069e-20
-1.32845e-21
2.93105e-20
-1.04863e-21
2.96726e-20
-7.62903e-22
2.98936e-20
-4.61139e-22
2.99655e-20
-1.51419e-22
2.98883e-20
1.61264e-22
2.9661e-20
4.71665e-22
2.92929e-20
7.74889e-22
2.87864e-20
1.06166e-21
2.81513e-20
1.34301e-21
2.73862e-20
1.61758e-21
2.64957e-20
1.88206e-21
2.54835e-20
2.12929e-21
2.43621e-20
2.36312e-21
2.31356e-20
2.57655e-21
2.18168e-20
2.77094e-21
2.04137e-20
2.94116e-21
1.8939e-20
3.089e-21
1.74023e-20
3.20888e-21
1.58223e-20
3.30241e-21
1.4212e-20
3.36446e-21
1.25887e-20
3.39501e-21
1.09679e-20
3.38882e-21
9.36966e-21
3.34513e-21
7.81467e-21
3.25995e-21
6.32247e-21
3.12831e-21
4.91367e-21
2.94726e-21
3.62155e-21
2.724e-21
2.4656e-21
2.43136e-21
1.4859e-21
2.06878e-21
7.37682e-22
1.64129e-21
2.11363e-22
1.0968e-21
4.5351e-22
1.04622e-22
-6.20089e-22
5.72867e-22
-1.60715e-21
1.2621e-21
-2.39457e-21
2.16738e-21
-3.02856e-21
3.21768e-21
-3.53374e-21
4.41778e-21
-3.96499e-21
5.72986e-21
-4.29388e-21
7.12128e-21
-4.5526e-21
8.56954e-21
-4.74117e-21
1.00583e-20
-4.86195e-21
1.15667e-20
-4.9223e-21
1.30754e-20
-4.92763e-21
1.45705e-20
-4.88295e-21
1.60378e-20
-4.78913e-21
1.74612e-20
-4.65071e-21
1.88294e-20
-4.47069e-21
2.01308e-20
-4.25285e-21
2.13545e-20
-3.99895e-21
2.24904e-20
-3.71387e-21
2.35304e-20
-3.39963e-21
2.44664e-20
-3.06007e-21
2.5292e-20
-2.69696e-21
2.60008e-20
-2.31549e-21
2.65894e-20
-1.9183e-21
2.70504e-20
-1.51137e-21
2.73795e-20
-1.09218e-21
2.75768e-20
-6.5954e-22
2.76415e-20
-2.15514e-22
2.75715e-20
2.31223e-22
2.73698e-20
6.75341e-22
2.70379e-20
1.10956e-21
2.65744e-20
1.53072e-21
2.59838e-20
1.93903e-21
2.52732e-20
2.33497e-21
2.44475e-20
2.71411e-21
2.35113e-20
3.07392e-21
2.24717e-20
3.4102e-21
2.13365e-20
3.72019e-21
2.01143e-20
4.00091e-21
1.88142e-20
4.24961e-21
1.74471e-20
4.46203e-21
1.60257e-20
4.63768e-21
1.45621e-20
4.77295e-21
1.30697e-20
4.86454e-21
1.15646e-20
4.90757e-21
1.00629e-20
4.89996e-21
8.58204e-21
4.83632e-21
7.13941e-21
4.71059e-21
5.75818e-21
4.52339e-21
4.45908e-21
4.26711e-21
3.25996e-21
3.92112e-21
2.20559e-21
3.50201e-21
1.31869e-21
2.98914e-21
6.13458e-22
2.34204e-21
1.61823e-22
1.5589e-21
6.15931e-22
1.23169e-22
-7.53595e-22
5.26832e-22
-2.01801e-21
1.12701e-21
-2.9915e-21
1.92928e-21
-3.83372e-21
2.90295e-21
-4.51118e-21
3.99132e-21
-5.05223e-21
5.18778e-21
-5.48926e-21
6.46337e-21
-5.82681e-21
7.79404e-21
-6.06676e-21
9.1611e-21
-6.22367e-21
1.05476e-20
-6.30592e-21
1.19364e-20
-6.3144e-21
1.33116e-20
-6.2554e-21
1.46602e-20
-6.13524e-21
1.59698e-20
-5.95753e-21
1.72289e-20
-5.72627e-21
1.84261e-20
-5.44582e-21
1.95519e-20
-5.12066e-21
2.05974e-20
-4.75481e-21
2.15543e-20
-4.35217e-21
2.24155e-20
-3.91663e-21
2.31746e-20
-3.45263e-21
2.38262e-20
-2.96419e-21
2.43656e-20
-2.45535e-21
2.47869e-20
-1.93049e-21
2.50869e-20
-1.39067e-21
2.52661e-20
-8.36947e-22
2.53247e-20
-2.73635e-22
2.52637e-20
2.92865e-22
2.50818e-20
8.5722e-22
2.4779e-20
1.41165e-21
2.43545e-20
1.95168e-21
2.38128e-20
2.4757e-21
2.31584e-20
2.98317e-21
2.23977e-20
3.46924e-21
2.15352e-20
3.93038e-21
2.05782e-20
4.36164e-21
1.95328e-20
4.7601e-21
1.84077e-20
5.1208e-21
1.72117e-20
5.44055e-21
1.59547e-20
5.71593e-21
1.46469e-20
5.94311e-21
1.33003e-20
6.11709e-21
1.19278e-20
6.23455e-21
1.05433e-20
6.2908e-21
9.1613e-21
6.28016e-21
7.79805e-21
6.19732e-21
6.47409e-21
6.03946e-21
5.20702e-21
5.79432e-21
4.01411e-21
5.45385e-21
2.92719e-21
5.02501e-21
1.96063e-21
4.47933e-21
1.14858e-21
3.78774e-21
5.46846e-22
2.96778e-21
1.5124e-22
1.95716e-21
7.67283e-22
1.41237e-22
-8.9833e-22
4.54847e-22
-2.31528e-21
1.01486e-21
-3.5445e-21
1.7284e-21
-4.54118e-21
2.59158e-21
-5.37002e-21
3.57495e-21
-6.03469e-21
4.65778e-21
-6.56829e-21
5.81371e-21
-6.97593e-21
7.02387e-21
-7.26909e-21
8.26986e-21
-7.46319e-21
9.53177e-21
-7.56231e-21
1.07958e-20
-7.57312e-21
1.20495e-20
-7.50369e-21
1.32794e-20
-7.35972e-21
1.44738e-20
-7.14571e-21
1.56219e-20
-6.86795e-21
1.67136e-20
-6.53103e-21
1.77399e-20
-6.14078e-21
1.86927e-20
-5.70147e-21
1.95651e-20
-5.21847e-21
2.035e-20
-4.69627e-21
2.10416e-20
-4.14001e-21
2.16347e-20
-3.55368e-21
2.21248e-20
-2.94281e-21
2.25076e-20
-2.31101e-21
2.27811e-20
-1.6621e-21
2.29444e-20
-9.9875e-22
2.29982e-20
-3.26214e-22
2.29424e-20
3.49721e-22
2.27774e-20
1.02203e-21
2.25019e-20
1.6845e-21
2.21163e-20
2.33228e-21
2.16225e-20
2.96217e-21
2.10265e-20
3.57087e-21
2.03328e-20
4.15413e-21
1.95469e-20
4.70729e-21
1.86738e-20
5.22568e-21
1.77208e-20
5.70437e-21
1.66942e-20
6.1392e-21
1.56031e-20
6.52502e-21
1.44568e-20
6.85725e-21
1.32651e-20
7.13067e-21
1.20375e-20
7.34121e-21
1.07862e-20
7.48273e-21
9.52365e-21
7.54977e-21
8.26434e-21
7.53693e-21
7.024e-21
7.43776e-21
5.81852e-21
7.24181e-21
4.66699e-21
6.94664e-21
3.59028e-21
6.54459e-21
2.60256e-21
6.00667e-21
1.74023e-21
5.33658e-21
1.02438e-21
4.52945e-21
4.6146e-22
3.5215e-21
1.13115e-22
2.31101e-21
8.80837e-22
9.81406e-23
-9.90452e-22
4.10788e-22
-2.61391e-21
8.90377e-22
-4.01222e-21
1.52934e-21
-5.17462e-21
2.2937e-21
-6.13475e-21
3.17229e-21
-6.91247e-21
4.13966e-21
-7.53328e-21
5.17525e-21
-8.00766e-21
6.26164e-21
-8.35177e-21
7.38103e-21
-8.57899e-21
8.51667e-21
-8.69484e-21
9.65576e-21
-8.70927e-21
1.07856e-20
-8.6304e-21
1.18942e-20
-8.46449e-21
1.29712e-20
-8.21846e-21
1.40062e-20
-7.89876e-21
1.49903e-20
-7.51141e-21
1.59153e-20
-7.06225e-21
1.67742e-20
-6.55691e-21
1.75599e-20
-6.00113e-21
1.82669e-20
-5.40048e-21
1.88896e-20
-4.76022e-21
1.94235e-20
-4.08574e-21
1.98643e-20
-3.38227e-21
2.02092e-20
-2.65464e-21
2.04556e-20
-1.90749e-21
2.06032e-20
-1.14535e-21
2.06518e-20
-3.7366e-22
2.06016e-20
4.0086e-22
2.04521e-20
1.17159e-21
2.02034e-20
1.93203e-21
1.98558e-20
2.67664e-21
1.94122e-20
3.4014e-21
1.88759e-20
4.10187e-21
1.8251e-20
4.77313e-21
1.75424e-20
5.40978e-21
1.67554e-20
6.00682e-21
1.58957e-20
6.55849e-21
1.49703e-20
7.05961e-21
1.39868e-20
7.50484e-21
1.29534e-20
7.8884e-21
1.18783e-20
8.20449e-21
1.07717e-20
8.44719e-21
9.64376e-21
8.61012e-21
8.50657e-21
8.68717e-21
7.37307e-21
8.67085e-21
6.25706e-21
8.55328e-21
5.17448e-21
8.32893e-21
4.14271e-21
7.98486e-21
3.17804e-21
7.50528e-21
2.30339e-21
6.89267e-21
1.53129e-21
6.12312e-21
8.86754e-22
5.15809e-21
4.17129e-22
4.00355e-21
1.15245e-22
2.61618e-21
9.9615e-22
8.87341e-23
-1.07525e-21
3.61652e-22
-2.87768e-21
7.79218e-22
-4.42443e-21
1.33454e-21
-5.72949e-21
2.00572e-21
-6.80687e-21
2.77752e-21
-7.68555e-21
3.62962e-21
-8.38634e-21
4.54472e-21
-8.92377e-21
5.50656e-21
-9.31406e-21
6.4978e-21
-9.5705e-21
7.50505e-21
-9.70265e-21
8.51618e-21
-9.72077e-21
9.51944e-21
-9.63344e-21
1.05045e-20
-9.44871e-21
1.14614e-20
-9.17443e-21
1.23811e-20
-8.81759e-21
1.32556e-20
-8.38521e-21
1.40776e-20
-7.88368e-21
1.48405e-20
-7.3196e-21
1.55386e-20
-6.6989e-21
1.61665e-20
-6.028e-21
1.67195e-20
-5.31289e-21
1.71934e-20
-4.55954e-21
1.75848e-20
-3.77343e-21
1.78907e-20
-2.96061e-21
1.81096e-20
-2.12624e-21
1.82408e-20
-1.27622e-21
1.82841e-20
-4.16571e-22
1.82395e-20
4.46077e-22
1.81066e-20
1.3049e-21
1.78855e-20
2.15304e-21
1.7577e-20
2.98472e-21
1.7183e-20
3.79448e-21
1.67066e-20
4.57697e-21
1.61513e-20
5.32673e-21
1.55216e-20
6.03804e-21
1.48221e-20
6.70485e-21
1.4058e-20
7.32132e-21
1.32354e-20
7.88133e-21
1.23612e-20
8.37895e-21
1.14426e-20
8.80767e-21
1.04874e-20
9.16099e-21
9.5043e-21
9.43188e-21
8.50262e-21
9.6136e-21
7.49304e-21
9.69854e-21
6.48728e-21
9.67909e-21
5.4985e-21
9.54673e-21
4.54058e-21
9.29002e-21
3.62837e-21
8.90011e-21
2.77897e-21
8.36866e-21
2.00702e-21
7.66889e-21
1.33525e-21
6.78936e-21
7.81099e-22
5.72676e-21
3.49565e-22
4.42984e-21
8.63051e-23
2.87944e-21
1.08254e-21
8.4655e-23
-1.15808e-21
3.06646e-22
-3.09982e-21
6.66564e-22
-4.78443e-21
1.14331e-21
-6.20702e-21
1.72366e-21
-7.38962e-21
2.39162e-21
-8.35645e-21
3.1291e-21
-9.12737e-21
3.92232e-21
-9.72045e-21
4.75764e-21
-1.01519e-20
5.61967e-21
-1.04351e-20
6.49673e-21
-1.05821e-20
7.37752e-21
-1.06036e-20
8.25208e-21
-1.05094e-20
9.11089e-21
-1.03086e-20
9.94519e-21
-1.00097e-20
1.07473e-20
-9.62056e-21
1.15101e-20
-9.14885e-21
1.2227e-20
-8.60166e-21
1.28924e-20
-7.98594e-21
1.35011e-20
-7.30853e-21
1.40486e-20
-6.57632e-21
1.45307e-20
-5.79561e-21
1.49438e-20
-4.97305e-21
1.52848e-20
-4.11503e-21
1.55515e-20
-3.2279e-21
1.57425e-20
-2.31778e-21
1.5857e-20
-1.39097e-21
1.58945e-20
-4.54105e-22
1.58552e-20
4.85912e-22
1.57389e-20
1.42198e-21
1.55458e-20
2.34724e-21
1.52767e-20
3.25497e-21
1.49333e-20
4.13904e-21
1.4518e-20
4.99336e-21
1.4034e-20
5.81189e-21
1.3485e-20
6.58823e-21
1.28749e-20
7.31601e-21
1.22086e-20
7.98886e-21
1.14911e-20
8.60016e-21
1.07284e-20
9.14319e-21
9.92698e-21
9.61096e-21
9.09376e-21
9.99618e-21
8.23624e-21
1.02915e-20
7.3629e-21
1.04891e-20
6.4831e-21
1.05809e-20
5.6076e-21
1.05577e-20
4.7479e-21
1.04096e-20
3.91608e-21
1.01277e-20
3.12522e-21
9.69859e-21
2.39074e-21
9.10468e-21
1.72821e-21
8.33934e-21
1.14567e-21
7.38336e-21
6.60521e-22
6.20042e-21
3.06645e-22
4.78367e-21
8.24132e-23
3.10469e-21
1.16491e-21
6.73304e-23
-1.22719e-21
2.55254e-22
-3.28903e-21
5.57841e-22
-5.08839e-21
9.59774e-22
-6.61114e-21
1.44969e-21
-7.88202e-21
2.01263e-21
-8.92266e-21
2.63595e-21
-9.75412e-21
3.308e-21
-1.03949e-20
4.01544e-21
-1.08616e-20
4.74667e-21
-1.11685e-20
5.49166e-21
-1.1329e-20
6.24057e-21
-1.13538e-20
6.98428e-21
-1.12541e-20
7.71461e-21
-1.10399e-20
8.42442e-21
-1.07203e-20
9.10695e-21
-1.03037e-20
9.75595e-21
-9.79845e-21
1.0366e-20
-9.2122e-21
1.09321e-20
-8.55261e-21
1.145e-20
-7.827e-21
1.19157e-20
-7.04236e-21
1.23257e-20
-6.20597e-21
1.26769e-20
-5.32481e-21
1.2967e-20
-4.40579e-21
1.31938e-20
-3.45552e-21
1.33563e-20
-2.48086e-21
1.34537e-20
-1.48859e-21
1.34857e-20
-4.85745e-22
1.3452e-20
5.20287e-22
1.33526e-20
1.52228e-21
1.3188e-20
2.51284e-21
1.2959e-20
3.48511e-21
1.26667e-20
4.43227e-21
1.23134e-20
5.34767e-21
1.19017e-20
6.22459e-21
1.14345e-20
7.05639e-21
1.09153e-20
7.83617e-21
1.03482e-20
8.55695e-21
9.73764e-21
9.21177e-21
9.0886e-21
9.79337e-21
8.40648e-21
1.02942e-20
7.69733e-21
1.07065e-20
6.96775e-21
1.10223e-20
6.22508e-21
1.12331e-20
5.47741e-21
1.13299e-20
4.73382e-21
1.13033e-20
4.00474e-21
1.11428e-20
3.30022e-21
1.08358e-20
2.63108e-21
1.03699e-20
2.01117e-21
9.734e-21
1.45115e-21
8.90587e-21
9.63145e-22
7.86576e-21
5.60994e-22
6.60517e-21
2.52455e-22
5.09013e-21
6.20532e-23
3.2911e-21
1.22687e-21
5.27907e-23
-1.27998e-21
2.0676e-22
-3.44504e-21
4.53039e-22
-5.33644e-21
7.81003e-22
-6.94105e-21
1.17986e-21
-8.2832e-21
1.63912e-21
-9.38415e-21
2.14928e-21
-1.02659e-20
2.6995e-21
-1.09466e-20
3.27915e-21
-1.14427e-20
3.8792e-21
-1.17696e-20
4.49072e-21
-1.19412e-20
5.10569e-21
-1.19691e-20
5.71658e-21
-1.18653e-20
6.31684e-21
-1.16403e-20
6.9002e-21
-1.13038e-20
7.46123e-21
-1.08647e-20
7.99471e-21
-1.03318e-20
8.4963e-21
-9.71362e-21
8.96173e-21
-9.0179e-21
9.38749e-21
-8.25254e-21
9.77027e-21
-7.42504e-21
1.01073e-20
-6.54315e-21
1.03959e-20
-5.61383e-21
1.06341e-20
-4.64461e-21
1.08204e-20
-3.64248e-21
1.09539e-20
-2.61478e-21
1.1034e-20
-1.56863e-21
1.10604e-20
-5.11608e-22
1.10327e-20
5.48774e-22
1.0951e-20
1.60483e-21
1.08153e-20
2.64905e-21
1.06266e-20
3.67409e-21
1.03862e-20
4.6729e-21
1.00956e-20
5.63838e-21
9.7569e-21
6.5634e-21
9.37256e-21
7.44076e-21
8.94559e-21
8.26321e-21
8.47918e-21
9.02351e-21
7.97708e-21
9.7141e-21
7.4433e-21
1.03273e-20
6.88241e-21
1.08553e-20
6.29941e-21
1.12898e-20
5.69979e-21
1.16222e-20
5.08964e-21
1.18436e-20
4.47566e-21
1.19446e-20
3.86573e-21
1.19147e-20
3.26817e-21
1.1742e-20
2.69128e-21
1.14157e-20
2.14466e-21
1.09222e-20
1.63805e-21
1.02425e-20
1.18289e-21
9.36319e-21
7.85098e-22
8.27064e-21
4.53053e-22
6.93127e-21
2.06549e-22
5.32824e-21
5.51497e-23
3.44421e-21
1.282e-21
4.16155e-23
-1.32257e-21
1.60662e-22
-3.5645e-21
3.50752e-22
-5.52754e-21
6.04724e-22
-7.19626e-21
9.14176e-22
-8.59424e-21
1.27182e-21
-9.7431e-21
1.66888e-21
-1.06642e-20
2.09687e-21
-1.13758e-20
2.54828e-21
-1.1895e-20
3.01594e-21
-1.22379e-20
3.49302e-21
-1.24183e-20
3.97274e-21
-1.24488e-20
4.44938e-21
-1.23419e-20
4.91792e-21
-1.21089e-20
5.37346e-21
-1.17592e-20
5.81146e-21
-1.13025e-20
6.22802e-21
-1.07481e-20
6.61955e-21
-1.01049e-20
6.983e-21
-9.38104e-21
7.31545e-21
-8.5847e-21
7.61432e-21
-7.7238e-21
7.87723e-21
-6.80609e-21
8.10244e-21
-5.83942e-21
8.28842e-21
-4.83114e-21
8.434e-21
-3.78869e-21
8.53837e-21
-2.7194e-21
8.60101e-21
-1.63091e-21
8.62136e-21
-5.31254e-22
8.59931e-21
5.7149e-22
8.53508e-21
1.6695e-21
8.42891e-21
2.75539e-21
8.28141e-21
3.82167e-21
8.09345e-21
4.86088e-21
7.8663e-21
5.86546e-21
7.6016e-21
6.82792e-21
7.30136e-21
7.74083e-21
6.96781e-21
8.59666e-21
6.6035e-21
9.38779e-21
6.21125e-21
1.01063e-20
5.79431e-21
1.07443e-20
5.35625e-21
1.12934e-20
4.90095e-21
1.17452e-20
4.43279e-21
1.20905e-20
3.95668e-21
1.232e-20
3.47796e-21
1.24237e-20
3.00238e-21
1.2391e-20
2.53727e-21
1.22099e-20
2.08903e-21
1.18674e-20
1.66358e-21
1.13477e-20
1.27142e-21
1.06396e-20
9.19128e-22
9.72431e-21
6.08921e-22
8.57524e-21
3.53117e-22
7.18174e-21
1.61925e-22
5.52266e-21
4.02434e-23
3.55951e-21
1.322e-21
2.97819e-23
-1.35178e-21
1.143e-22
-3.64985e-21
2.50533e-22
-5.66382e-21
4.32186e-22
-7.37858e-21
6.53696e-22
-8.81653e-21
9.09269e-22
-9.99969e-21
1.19269e-21
-1.09489e-20
1.49854e-21
-1.16828e-20
1.82171e-21
-1.22188e-20
2.15646e-21
-1.25729e-20
2.49796e-21
-1.276e-20
2.84136e-21
-1.27922e-20
3.1829e-21
-1.26835e-20
3.51861e-21
-1.24445e-20
3.845e-21
-1.20854e-20
4.15874e-21
-1.16161e-20
4.45716e-21
-1.10465e-20
4.7376e-21
-1.03853e-20
4.99794e-21
-9.64122e-21
5.23597e-21
-8.82255e-21
5.44996e-21
-7.93771e-21
5.63823e-21
-6.99454e-21
5.79966e-21
-6.00099e-21
5.93294e-21
-4.96455e-21
6.03739e-21
-3.89292e-21
6.11218e-21
-2.79371e-21
6.15694e-21
-1.67519e-21
6.17125e-21
-5.45372e-22
6.15516e-21
5.87645e-22
6.10863e-21
1.71598e-21
6.03216e-21
2.83193e-21
5.92617e-21
3.92778e-21
5.79125e-21
4.99579e-21
5.62832e-21
6.02832e-21
5.43844e-21
7.01771e-21
5.22312e-21
7.95611e-21
4.98389e-21
8.83591e-21
4.72264e-21
9.64902e-21
4.44141e-21
1.03875e-20
4.14253e-21
1.10432e-20
3.82856e-21
1.16075e-20
3.50228e-21
1.20716e-20
3.16684e-21
1.24263e-20
2.82579e-21
1.26612e-20
2.48317e-21
1.27668e-20
2.14319e-21
1.27325e-20
1.81113e-21
1.25436e-20
1.49078e-21
1.21889e-20
1.18834e-21
1.16554e-20
9.09034e-22
1.09229e-20
6.57018e-22
9.97335e-21
4.39879e-22
8.79756e-21
2.55187e-22
7.36592e-21
1.12e-22
5.65099e-21
2.76164e-23
3.64527e-21
1.34955e-21
1.74604e-23
-1.37015e-21
6.94398e-23
-3.70087e-21
1.5218e-22
-5.74619e-21
2.62072e-22
-7.4884e-21
3.95701e-22
-8.95044e-21
5.49286e-22
-1.0154e-20
7.19491e-22
-1.11199e-20
9.03358e-22
-1.18672e-20
1.0979e-21
-1.24138e-20
1.29995e-21
-1.27749e-20
1.50469e-21
-1.29646e-20
1.71101e-21
-1.29986e-20
1.91701e-21
-1.28895e-20
2.11929e-21
-1.26466e-20
2.31541e-21
-1.22813e-20
2.50396e-21
-1.18046e-20
2.68327e-21
-1.12258e-20
2.85188e-21
-1.05538e-20
3.00834e-21
-9.79752e-21
3.15141e-21
-8.96552e-21
3.27984e-21
-8.06614e-21
3.39297e-21
-7.10738e-21
3.48989e-21
-6.0973e-21
3.57027e-21
-5.04377e-21
3.63337e-21
-3.95465e-21
3.67861e-21
-2.83787e-21
3.70521e-21
-1.70157e-21
3.71321e-21
-5.53818e-22
3.70277e-21
5.97244e-22
3.67439e-21
1.74378e-21
3.62817e-21
2.87785e-21
3.5642e-21
3.99162e-21
3.48266e-21
5.07716e-21
3.38424e-21
6.1266e-21
3.26966e-21
7.13214e-21
3.13985e-21
8.0859e-21
2.99565e-21
8.98001e-21
2.83821e-21
9.8064e-21
2.66879e-21
1.05569e-20
2.48888e-21
1.1223e-20
2.29998e-21
1.17963e-20
2.10388e-21
1.22679e-20
1.90193e-21
1.26283e-20
1.6963e-21
1.2867e-20
1.49043e-21
1.29729e-20
1.28714e-21
1.29361e-20
1.0877e-21
1.27451e-20
8.96528e-22
1.23839e-20
7.15273e-22
1.18358e-20
5.4944e-22
1.10899e-20
4.02264e-22
1.01318e-20
2.66585e-22
8.92776e-21
1.53766e-22
7.46661e-21
7.50869e-23
5.73588e-21
1.95246e-23
3.69178e-21
1.36866e-21
6.6499e-24
-1.37588e-21
2.48129e-23
-3.71923e-21
5.46062e-23
-5.77511e-21
9.33152e-23
-7.5261e-21
1.38995e-22
-8.99605e-21
1.91023e-22
-1.02063e-20
2.4825e-22
-1.11776e-20
3.09804e-22
-1.19291e-20
3.7451e-22
-1.24783e-20
4.41598e-22
-1.28418e-20
5.11272e-22
-1.30342e-20
5.83785e-22
-1.30709e-20
6.53247e-22
-1.29586e-20
7.19532e-22
-1.27126e-20
7.84569e-22
-1.23461e-20
8.47486e-22
-1.18674e-20
9.07346e-22
-1.12855e-20
9.63599e-22
-1.06099e-20
1.01572e-21
-9.84953e-21
1.0633e-21
-9.01298e-21
1.10599e-21
-8.10843e-21
1.14359e-21
-7.14428e-21
1.17608e-21
-6.12852e-21
1.20337e-21
-5.06915e-21
1.22481e-21
-3.9742e-21
1.23992e-21
-2.85185e-21
1.24832e-21
-1.71003e-21
1.25017e-21
-5.56667e-22
1.2458e-21
6.00329e-22
1.2356e-21
1.75308e-21
1.21958e-21
2.8934e-21
1.19764e-21
4.01328e-21
1.16985e-21
5.10469e-21
1.13631e-21
6.15986e-21
1.09748e-21
7.17078e-21
1.05344e-21
8.12978e-21
1.00471e-21
9.0286e-21
9.51534e-22
9.85939e-21
8.94428e-22
1.06137e-20
8.33914e-22
1.12834e-20
7.70674e-22
1.18595e-20
7.05471e-22
1.2333e-20
6.39334e-22
1.26944e-20
5.70135e-22
1.29361e-20
4.9804e-22
1.30449e-20
4.29764e-22
1.30054e-20
3.65162e-22
1.28106e-20
3.03267e-22
1.24453e-20
2.45353e-22
1.18983e-20
1.91722e-22
1.11488e-20
1.42287e-22
1.01744e-20
1.01959e-22
8.97029e-21
6.191e-23
7.50985e-21
2.05794e-23
5.75643e-21
2.4391e-24
3.71071e-21
1.371e-21
-4.74707e-24
-1.37197e-21
-1.85583e-23
-3.70336e-21
-4.18809e-23
-5.74953e-21
-7.51723e-23
-7.49172e-21
-1.16901e-22
-8.9535e-21
-1.66337e-22
-1.01567e-20
-2.21973e-22
-1.1122e-20
-2.81902e-22
-1.1869e-20
-3.44799e-22
-1.2415e-20
-4.10282e-22
-1.27759e-20
-4.78591e-22
-1.29654e-20
-5.49854e-22
-1.29992e-20
-6.18215e-22
-1.28898e-20
-6.83568e-22
-1.26469e-20
-7.47898e-22
-1.22815e-20
-8.10269e-22
-1.18046e-20
-8.69782e-22
-1.12256e-20
-9.259e-22
-1.05536e-20
-9.78098e-22
-9.79704e-21
-1.02606e-21
-8.96473e-21
-1.06918e-21
-8.0649e-21
-1.10711e-21
-7.10572e-21
-1.13924e-21
-6.09501e-21
-1.16573e-21
-5.04116e-21
-1.18634e-21
-3.95208e-21
-1.20156e-21
-2.836e-21
-1.2112e-21
-1.70052e-21
-1.21528e-21
-5.53519e-22
-1.21315e-21
5.97511e-22
-1.20497e-21
1.74426e-21
-1.19061e-21
2.8788e-21
-1.17049e-21
3.99276e-21
-1.14448e-21
5.07849e-21
-1.11303e-21
6.12807e-21
-1.07608e-21
7.1338e-21
-1.03417e-21
8.08761e-21
-9.87331e-22
8.98166e-21
-9.36171e-22
9.80784e-21
-8.80792e-22
1.05582e-20
-8.21943e-22
1.12242e-20
-7.59912e-22
1.17973e-20
-6.95862e-22
1.22686e-20
-6.30538e-22
1.26288e-20
-5.62059e-22
1.28672e-20
-4.90112e-22
1.29728e-20
-4.20955e-22
1.29355e-20
-3.53374e-22
1.27442e-20
-2.87479e-22
1.2383e-20
-2.25173e-22
1.18341e-20
-1.64867e-22
1.10874e-20
-1.08818e-22
1.01305e-20
-7.14474e-23
8.92676e-21
-4.22021e-23
7.46257e-21
-1.12219e-23
5.7342e-21
-1.64787e-24
3.69005e-21
1.36885e-21
-1.68102e-23
-1.35373e-21
-6.27198e-23
-3.65512e-21
-1.3918e-22
-5.67075e-21
-2.43495e-22
-7.38484e-21
-3.73321e-22
-8.82238e-21
-5.24662e-22
-1.00046e-20
-6.93536e-22
-1.09527e-20
-8.76077e-22
-1.16859e-20
-1.06919e-21
-1.22213e-20
-1.26964e-21
-1.25747e-20
-1.47295e-21
-1.27614e-20
-1.67823e-21
-1.27932e-20
-1.88328e-21
-1.26841e-20
-2.08461e-21
-1.24448e-20
-2.27999e-21
-1.20855e-20
-2.46796e-21
-1.1616e-20
-2.64697e-21
-1.10461e-20
-2.81532e-21
-1.03846e-20
-2.97176e-21
-9.64018e-21
-3.1148e-21
-8.82115e-21
-3.24362e-21
-7.93568e-21
-3.35687e-21
-6.9916e-21
-3.4541e-21
-5.99711e-21
-3.53425e-21
-4.96009e-21
-3.59726e-21
-3.8886e-21
-3.64256e-21
-2.79028e-21
-3.67026e-21
-1.67287e-21
-3.67975e-21
-5.43882e-22
-3.6713e-21
5.88846e-22
-3.64443e-21
1.71741e-21
-3.59984e-21
2.83382e-21
-3.53735e-21
3.93023e-21
-3.45792e-21
4.99871e-21
-3.3614e-21
6.03158e-21
-3.24907e-21
7.0211e-21
-3.12107e-21
7.95948e-21
-2.979e-21
8.83914e-21
-2.82334e-21
9.65203e-21
-2.65581e-21
1.03902e-20
-2.47728e-21
1.10454e-20
-2.28984e-21
1.16093e-20
-2.09466e-21
1.2073e-20
-1.89368e-21
1.24271e-20
-1.68863e-21
1.26614e-20
-1.48313e-21
1.27663e-20
-1.27869e-21
1.27317e-20
-1.07652e-21
1.25419e-20
-8.81163e-22
1.21856e-20
-6.9501e-22
1.1653e-20
-5.23367e-22
1.09213e-20
-3.71065e-22
9.96702e-21
-2.34616e-22
8.79121e-21
-1.31079e-22
7.3648e-21
-7.01279e-23
5.64691e-21
-2.12784e-23
3.64219e-21
1.34746e-21
-2.68719e-23
-1.32664e-21
-1.06507e-22
-3.57137e-21
-2.363e-22
-5.53604e-21
-4.13534e-22
-7.20469e-21
-6.31657e-22
-8.60194e-21
-8.85076e-22
-9.74972e-21
-1.16751e-21
-1.06693e-20
-1.4727e-21
-1.13798e-20
-1.79457e-21
-1.1898e-20
-2.12814e-21
-1.22399e-20
-2.46848e-21
-1.24197e-20
-2.81086e-21
-1.24496e-20
-3.15143e-21
-1.23423e-20
-3.48654e-21
-1.21086e-20
-3.81209e-21
-1.17586e-20
-4.12541e-21
-1.13016e-20
-4.42323e-21
-1.07469e-20
-4.70361e-21
-1.01032e-20
-4.96363e-21
-9.379e-21
-5.20186e-21
-8.58214e-21
-5.41573e-21
-7.72074e-21
-5.60427e-21
-6.8024e-21
-5.76567e-21
-5.83504e-21
-5.89948e-21
-4.82609e-21
-6.00425e-21
-3.78352e-21
-6.07984e-21
-2.7146e-21
-6.12509e-21
-1.62716e-21
-6.14032e-21
-5.28257e-22
-6.12504e-21
5.74136e-22
-6.08013e-21
1.67263e-21
-6.00521e-21
2.75898e-21
-5.90111e-21
3.82588e-21
-5.7679e-21
4.86534e-21
-5.60696e-21
5.87024e-21
-5.41897e-21
6.83275e-21
-5.20578e-21
7.74578e-21
-4.96844e-21
8.60129e-21
-4.70909e-21
9.39202e-21
-4.42941e-21
1.01098e-20
-4.13204e-21
1.07473e-20
-3.81925e-21
1.12956e-20
-3.49407e-21
1.17468e-20
-3.15947e-21
1.20912e-20
-2.81912e-21
1.23199e-20
-2.47662e-21
1.24227e-20
-2.13582e-21
1.23886e-20
-1.80081e-21
1.22067e-20
-1.47599e-21
1.1865e-20
-1.1698e-21
1.13421e-20
-8.8326e-22
1.06306e-20
-6.23211e-22
9.72176e-21
-4.11647e-22
8.57131e-21
-2.39725e-22
7.16859e-21
-9.81989e-23
5.51622e-21
-2.36772e-23
3.55358e-21
1.32308e-21
-4.01518e-23
-1.28434e-21
-1.51647e-22
-3.45333e-21
-3.36174e-22
-5.3471e-21
-5.85342e-22
-6.95061e-21
-8.92733e-22
-8.29129e-21
-1.24901e-21
-9.39146e-21
-1.64539e-21
-1.02713e-20
-2.07298e-21
-1.09506e-20
-2.5239e-21
-1.14455e-20
-2.99065e-21
-1.17714e-20
-3.46677e-21
-1.1942e-20
-3.94555e-21
-1.19693e-20
-4.42165e-21
-1.18648e-20
-4.88951e-21
-1.16394e-20
-5.34445e-21
-1.13023e-20
-5.78179e-21
-1.08627e-20
-6.19795e-21
-1.03293e-20
-6.58918e-21
-9.71074e-21
-6.95241e-21
-9.01454e-21
-7.28461e-21
-8.24888e-21
-7.5833e-21
-7.42089e-21
-7.84651e-21
-6.53859e-21
-8.07212e-21
-5.60887e-21
-8.25882e-21
-4.6395e-21
-8.405e-21
-3.63722e-21
-8.51005e-21
-2.60967e-21
-8.57291e-21
-1.56356e-21
-8.59392e-21
-5.06795e-22
-8.57243e-21
5.53508e-22
-8.50927e-21
1.60948e-21
-8.4041e-21
2.65413e-21
-8.25832e-21
3.67958e-21
-8.07191e-21
4.679e-21
-7.84699e-21
5.64466e-21
-7.58406e-21
6.56986e-21
-7.28611e-21
7.44696e-21
-6.95419e-21
8.26905e-21
-6.59186e-21
9.02857e-21
-6.20092e-21
9.71837e-21
-5.78556e-21
1.03305e-20
-5.34835e-21
1.08575e-20
-4.89432e-21
1.12908e-20
-4.42666e-21
1.16222e-20
-3.95137e-21
1.18422e-20
-3.47277e-21
1.1942e-20
-2.99642e-21
1.19117e-20
-2.5278e-21
1.1738e-20
-2.07627e-21
1.14077e-20
-1.64514e-21
1.09163e-20
-1.24737e-21
1.024e-20
-8.92909e-22
9.34904e-21
-5.76872e-22
8.25481e-21
-3.27452e-22
6.92827e-21
-1.62789e-22
5.31807e-21
-4.71081e-23
3.43694e-21
1.27575e-21
-5.01743e-23
-1.23219e-21
-1.97815e-22
-3.30006e-21
-4.36409e-22
-5.1002e-21
-7.60572e-22
-6.62129e-21
-1.15843e-21
-7.89021e-21
-1.61793e-21
-8.92934e-21
-2.12863e-21
-9.75916e-21
-2.67873e-21
-1.03989e-20
-3.25846e-21
-1.08645e-20
-3.85774e-21
-1.11703e-20
-4.46908e-21
-1.13296e-20
-5.08309e-21
-1.13538e-20
-5.69386e-21
-1.12536e-20
-6.29301e-21
-1.10387e-20
-6.87641e-21
-1.07184e-20
-7.43623e-21
-1.03012e-20
-7.97014e-21
-9.79542e-21
-8.4705e-21
-9.20865e-21
-8.93667e-21
-8.54866e-21
-9.36115e-21
-7.82255e-21
-9.7449e-21
-7.03783e-21
-1.00807e-20
-6.20123e-21
-1.03709e-20
-5.31992e-21
-1.06087e-20
-4.40061e-21
-1.07974e-20
-3.45019e-21
-1.09303e-20
-2.4753e-21
-1.10122e-20
-1.483e-21
-1.1037e-20
-4.80161e-22
-1.10107e-20
5.25971e-22
-1.09278e-20
1.52823e-21
-1.07946e-20
2.51939e-21
-1.06058e-20
3.49243e-21
-1.03685e-20
4.44035e-21
-1.00782e-20
5.35627e-21
-9.74301e-21
6.23326e-21
-9.35922e-21
7.06461e-21
-8.93561e-21
7.84377e-21
-8.46951e-21
8.56358e-21
-7.97014e-21
9.21708e-21
-7.43615e-21
9.79704e-21
-6.87751e-21
1.02963e-20
-6.29409e-21
1.0707e-20
-5.69622e-21
1.10214e-20
-5.08558e-21
1.1231e-20
-4.47235e-21
1.13271e-20
-3.86055e-21
1.12983e-20
-3.26145e-21
1.11364e-20
-2.6786e-21
1.08318e-20
-2.12862e-21
1.03614e-20
-1.6171e-21
9.71658e-21
-1.14968e-21
8.90102e-21
-7.61808e-22
7.85988e-21
-4.44015e-22
6.5789e-21
-1.87715e-22
5.075e-21
-4.63668e-23
3.27887e-21
1.2285e-21
-6.41191e-23
-1.16581e-21
-2.44545e-22
-3.11051e-21
-5.41524e-22
-4.79687e-21
-9.40327e-22
-6.21788e-21
-1.42895e-21
-7.39801e-21
-1.99353e-21
-8.36337e-21
-2.61855e-21
-9.13305e-21
-3.29161e-21
-9.72536e-21
-3.99907e-21
-1.01558e-20
-4.73103e-21
-1.04382e-20
-5.47533e-21
-1.05844e-20
-6.22435e-21
-1.06052e-20
-6.96696e-21
-1.05101e-20
-7.69769e-21
-1.03089e-20
-8.40617e-21
-1.00092e-20
-9.08904e-21
-9.61962e-21
-9.73671e-21
-9.14699e-21
-1.03477e-20
-8.59943e-21
-1.09125e-20
-7.98306e-21
-1.14315e-20
-7.30555e-21
-1.18958e-20
-6.57275e-21
-1.23071e-20
-5.79205e-21
-1.26574e-20
-4.96915e-21
-1.29492e-20
-4.11116e-21
-1.31754e-20
-3.22343e-21
-1.33398e-20
-2.31328e-21
-1.3436e-20
-1.38576e-21
-1.34692e-20
-4.48747e-22
-1.3434e-20
4.92139e-22
-1.3336e-20
1.42882e-21
-1.31705e-20
2.35562e-21
-1.29437e-20
3.26454e-21
-1.26517e-20
4.15022e-21
-1.23014e-20
5.0049e-21
-1.18902e-20
5.82379e-21
-1.1426e-20
6.59946e-21
-1.09076e-20
7.32682e-21
-1.03431e-20
7.9979e-21
-9.73274e-21
8.60797e-21
-9.08545e-21
9.14863e-21
-8.40316e-21
9.61471e-21
-7.69527e-21
9.99793e-21
-6.96543e-21
1.02923e-20
-6.22343e-21
1.04883e-20
-5.47528e-21
1.05788e-20
-4.73114e-21
1.05549e-20
-3.99798e-21
1.0407e-20
-3.29025e-21
1.01189e-20
-2.6173e-21
9.68989e-21
-1.98979e-21
9.10496e-21
-1.43289e-21
8.32239e-21
-9.35559e-22
7.35614e-21
-5.32039e-22
6.1958e-21
-2.5905e-22
4.76664e-21
-7.39044e-23
3.09321e-21
1.15443e-21
-7.68276e-23
-1.08698e-21
-2.94091e-22
-2.88516e-21
-6.49726e-22
-4.43657e-21
-1.12588e-21
-5.73746e-21
-1.70784e-21
-6.81485e-21
-2.37742e-21
-7.69391e-21
-3.11713e-21
-8.39323e-21
-3.91248e-21
-8.93056e-21
-4.74756e-21
-9.32094e-21
-5.61029e-21
-9.57626e-21
-6.48703e-21
-9.70774e-21
-7.36861e-21
-9.72511e-21
-8.242e-21
-9.63732e-21
-9.10122e-21
-9.45201e-21
-9.934e-21
-9.17714e-21
-1.07372e-20
-8.81977e-21
-1.14981e-20
-8.38706e-21
-1.22166e-20
-7.88498e-21
-1.28798e-20
-7.32044e-21
-1.34907e-20
-6.69925e-21
-1.40355e-20
-6.02806e-21
-1.45202e-20
-5.31247e-21
-1.49305e-20
-4.55862e-21
-1.5275e-20
-3.77197e-21
-1.55389e-20
-2.95867e-21
-1.57335e-20
-2.12362e-21
-1.58442e-20
-1.27291e-21
-1.58851e-20
-4.12264e-22
-1.58409e-20
4.51447e-22
-1.57278e-20
1.31192e-21
-1.55305e-20
2.16209e-21
-1.52663e-20
2.99617e-21
-1.49203e-20
3.80774e-21
-1.45115e-20
4.59147e-21
-1.40252e-20
5.3414e-21
-1.34823e-20
6.05227e-21
-1.28699e-20
6.7181e-21
-1.2209e-20
7.33407e-21
-1.14888e-20
7.8926e-21
-1.07307e-20
8.38847e-21
-9.92547e-21
8.81518e-21
-9.0955e-21
9.16732e-21
-8.23438e-21
9.43702e-21
-7.36428e-21
9.6182e-21
-6.48136e-21
9.70256e-21
-5.60709e-21
9.68186e-21
-4.74316e-21
9.54635e-21
-3.90987e-21
9.29193e-21
-3.11159e-21
8.8996e-21
-2.37609e-21
8.35327e-21
-1.70234e-21
7.66418e-21
-1.12743e-21
6.7922e-21
-6.61701e-22
5.69719e-21
-2.84276e-22
4.41092e-21
-6.86094e-23
2.86518e-21
1.08527e-21
-8.77032e-23
-9.95599e-22
-3.47441e-22
-2.62212e-21
-7.62096e-22
-4.01673e-21
-1.31908e-21
-5.17904e-21
-1.99501e-21
-6.13881e-21
-2.77008e-21
-6.91757e-21
-3.62609e-21
-7.53772e-21
-4.54205e-21
-8.01349e-21
-5.50485e-21
-8.35868e-21
-6.49542e-21
-8.58389e-21
-7.50466e-21
-8.69998e-21
-8.5141e-21
-8.7137e-21
-9.51926e-21
-8.63468e-21
-1.05016e-20
-8.46778e-21
-1.14607e-20
-8.2226e-21
-1.2377e-20
-7.90182e-21
-1.32547e-20
-7.51541e-21
-1.40728e-20
-7.06481e-21