/*--------------------------------*- C++ -*----------------------------------*\
| =========                 |                                                 |
| \\      /  F ield         | OpenFOAM: The Open Source CFD Toolbox           |
|  \\    /   O peration     | Version:  5.0                                   |
|   \\  /    A nd           | Web:      www.OpenFOAM.org                      |
|    \\/     M anipulation  |                                                 |
\*---------------------------------------------------------------------------*/
FoamFile
{
    version     2.0;
    format      ascii;
    class       volScalarField;
    location    "3.4";
    object      p;
}
// * * * * * * * * * * * * * * * * * * * * * * * * * * * * * * * * * * * * * //

dimensions      [0 2 -2 0 0 0 0];

internalField   nonuniform List<scalar> 
25
(
9.11531
7.14004
5.07164
3.05357
1.02204
9.11445
7.10644
5.06779
3.05053
0.983088
9.12016
7.08761
5.06536
3.04772
0.95359
9.09056
7.09126
5.06612
3.04907
1.01823
8.99521
7.10191
5.06926
3.05613
1.22916
)
;

boundaryField
{
    top
    {
        type            zeroGradient;
    }
    bottom
    {
        type            symmetryPlane;
    }
    inlet
    {
        type            fixedValue;
        value           nonuniform 0();
    }
    outlet
    {
        type            fixedValue;
        value           uniform 0;
    }
    frontAndBack
    {
        type            empty;
    }
    procBoundary1to0
    {
        type            processor;
        value           nonuniform List<scalar> 5(11.0864 11.0521 11.0262 11.0608 11.1698);
    }
}


// ************************************************************************* //
