/*--------------------------------*- C++ -*----------------------------------*\
| =========                 |                                                 |
| \\      /  F ield         | OpenFOAM: The Open Source CFD Toolbox           |
|  \\    /   O peration     | Version:  5.0                                   |
|   \\  /    A nd           | Web:      www.OpenFOAM.org                      |
|    \\/     M anipulation  |                                                 |
\*---------------------------------------------------------------------------*/
FoamFile
{
    version     2.0;
    format      ascii;
    class       surfaceScalarField;
    location    "2";
    object      phi;
}
// * * * * * * * * * * * * * * * * * * * * * * * * * * * * * * * * * * * * * //

dimensions      [0 3 -1 0 0 0 0];

internalField   nonuniform List<scalar> 
85
(
0.000100749
2.26013e-20
0.000100749
-1.61198e-19
0.000100749
-1.31433e-20
0.000100749
1.49508e-20
-8.0123e-20
0.000100749
5.32765e-20
0.000100749
-6.95861e-20
0.000100749
-1.36921e-19
0.000100749
-2.22292e-20
-1.59393e-19
0.000100749
5.40642e-20
0.000100749
-7.89803e-20
0.000100749
1.078e-20
0.000100749
1.23367e-19
-1.25351e-19
0.000100749
9.41048e-20
0.000100749
-6.95636e-20
0.000100749
-8.42962e-20
0.000100749
9.91648e-20
-1.32164e-19
0.000100749
-6.01454e-21
0.000100749
-2.15967e-19
0.000100749
-4.56276e-20
0.000100749
1.35896e-19
-1.00171e-19
0.000100749
-3.75927e-20
0.000100749
-1.52263e-19
0.000100749
1.0522e-19
0.000100749
1.73649e-19
-2.12471e-19
0.000100749
-4.5088e-20
0.000100749
5.99279e-20
0.000100749
-1.23228e-19
0.000100749
1.97516e-19
-1.38065e-19
0.000100749
-3.6622e-20
0.000100749
-3.93891e-20
0.000100749
-8.87549e-20
0.000100749
2.15468e-19
-1.04337e-19
0.000100749
-1.71246e-20
0.000100749
5.87522e-20
0.000100749
-7.21418e-20
0.000100749
2.23584e-19
-4.90501e-20
0.000100749
0.000100749
0.000100749
0.000100749
)
;

boundaryField
{
    top
    {
        type            calculated;
        value           nonuniform List<scalar> 5(-1.53792e-20 -6.5558e-20 -7.03547e-20 2.28549e-19 -2.6059e-19);
    }
    bottom
    {
        type            symmetryPlane;
        value           uniform 0;
    }
    inlet
    {
        type            calculated;
        value           nonuniform List<scalar> 10(-0.000100749 -0.000100749 -0.000100749 -0.000100749 -0.000100749 -0.000100749 -0.000100749 -0.000100749 -0.000100749 -0.000100749);
    }
    outlet
    {
        type            calculated;
        value           nonuniform 0();
    }
    frontAndBack
    {
        type            empty;
        value           nonuniform 0();
    }
    procBoundary0to1
    {
        type            processor;
        value           nonuniform List<scalar> 10(0.000100749 0.000100749 0.000100749 0.000100749 0.000100749 0.000100749 0.000100749 0.000100749 0.000100749 0.000100749);
    }
}


// ************************************************************************* //
