/*--------------------------------*- C++ -*----------------------------------*\
| =========                 |                                                 |
| \\      /  F ield         | OpenFOAM: The Open Source CFD Toolbox           |
|  \\    /   O peration     | Version:  5.0                                   |
|   \\  /    A nd           | Web:      www.OpenFOAM.org                      |
|    \\/     M anipulation  |                                                 |
\*---------------------------------------------------------------------------*/
FoamFile
{
    version     2.0;
    format      ascii;
    class       volScalarField;
    location    "2";
    object      shearRate;
}
// * * * * * * * * * * * * * * * * * * * * * * * * * * * * * * * * * * * * * //

dimensions      [0 0 -1 0 0 0 0];

internalField   nonuniform List<scalar> 
50
(
6.00828e-15
8.46167e-15
4.08552e-15
6.96609e-15
2.28398e-14
2.17265e-14
2.23595e-14
4.3573e-14
2.32528e-14
2.22564e-14
2.69338e-15
5.92374e-15
4.27613e-15
2.37092e-14
4.51681e-14
2.25571e-14
2.2619e-14
7.04358e-15
2.21281e-14
2.19594e-14
2.27725e-14
4.34622e-14
2.28934e-14
2.16894e-14
2.83259e-15
7.78842e-15
2.85669e-15
7.75244e-15
3.65415e-15
2.22502e-14
2.92853e-15
4.35746e-14
2.34178e-14
4.41662e-14
6.46758e-15
2.19436e-14
1.0014e-15
1.17934e-14
1.02799e-14
5.70481e-15
2.19507e-14
5.22665e-15
2.60058e-14
4.97563e-15
2.28498e-14
2.79256e-15
2.22688e-14
1.29287e-14
7.39728e-16
2.30153e-14
)
;

boundaryField
{
    top
    {
        type            zeroGradient;
    }
    bottom
    {
        type            symmetryPlane;
    }
    inlet
    {
        type            zeroGradient;
    }
    outlet
    {
        type            zeroGradient;
    }
    frontAndBack
    {
        type            empty;
    }
    procBoundary0to1
    {
        type            processor;
        value           nonuniform List<scalar> 10(2.9888e-14 2.51806e-14 1.40952e-14 2.6136e-14 4.54536e-14 4.50435e-14 2.58094e-14 2.56224e-14 1.29575e-14 2.45665e-14);
    }
}


// ************************************************************************* //
