/*--------------------------------*- C++ -*----------------------------------*\
| =========                 |                                                 |
| \\      /  F ield         | OpenFOAM: The Open Source CFD Toolbox           |
|  \\    /   O peration     | Version:  5.0                                   |
|   \\  /    A nd           | Web:      www.OpenFOAM.org                      |
|    \\/     M anipulation  |                                                 |
\*---------------------------------------------------------------------------*/
FoamFile
{
    version     2.0;
    format      ascii;
    class       volVectorField;
    location    "2";
    object      U;
}
// * * * * * * * * * * * * * * * * * * * * * * * * * * * * * * * * * * * * * //

dimensions      [0 1 -1 0 0 0 0];

internalField   nonuniform List<vector> 
25
(
(1 -7.22519e-10 -1.58513e-29)
(1 6.83298e-10 -3.2324e-23)
(1 2.21252e-09 -3.23239e-23)
(1 6.29871e-09 -3.2324e-23)
(1 -2.31989e-10 -1.35847e-29)
(0.92 -4.00343e-09 -7.11298e-37)
(0.92 3.90042e-09 2.79794e-23)
(0.92 5.1703e-09 1.09064e-28)
(0.92 2.21194e-08 -2.79792e-23)
(0.92 -4.70129e-10 -2.79794e-23)
(0.76 -9.01213e-09 -2.73702e-23)
(0.76 8.16109e-09 1.79129e-28)
(0.76 3.6835e-09 2.79794e-23)
(0.76 3.54867e-08 -5.59587e-23)
(0.76 8.55957e-10 -5.59588e-23)
(0.52 -1.18441e-08 5.48444e-23)
(0.52 1.05537e-08 2.79797e-23)
(0.52 2.19807e-10 -5.59588e-23)
(0.52 4.02966e-08 -2.79805e-23)
(0.52 9.1574e-10 5.59588e-23)
(0.2 -5.05201e-09 3.93808e-23)
(0.2 4.42101e-09 1.99393e-23)
(0.2 -5.69227e-10 -5.9818e-23)
(0.2 1.63036e-08 -1.99395e-23)
(0.2 3.21349e-10 3.98786e-23)
)
;

boundaryField
{
    top
    {
        type            fixedValue;
        value           uniform (0 0 0);
    }
    bottom
    {
        type            symmetryPlane;
    }
    inlet
    {
        type            pressureInletVelocity;
        value           nonuniform List<vector> 5((1 -0 -0) (0.92 -0 -0) (0.76 -0 -0) (0.52 -0 -0) (0.2 -0 -0));
    }
    outlet
    {
        type            inletOutlet;
        inletValue      nonuniform 0();
        value           nonuniform 0();
    }
    frontAndBack
    {
        type            empty;
    }
    procBoundary0to1
    {
        type            processor;
        value           nonuniform List<vector> 5((1 -7.41426e-09 6.46481e-23) (0.92 -2.79002e-08 -2.79792e-23) (0.76 -4.57177e-08 2.79789e-23) (0.52 -5.02981e-08 5.59581e-23) (0.2 -1.99842e-08 3.98788e-23));
    }
}


// ************************************************************************* //
