/*--------------------------------*- C++ -*----------------------------------*\
| =========                 |                                                 |
| \\      /  F ield         | OpenFOAM: The Open Source CFD Toolbox           |
|  \\    /   O peration     | Version:  5.0                                   |
|   \\  /    A nd           | Web:      www.OpenFOAM.org                      |
|    \\/     M anipulation  |                                                 |
\*---------------------------------------------------------------------------*/
FoamFile
{
    version     2.0;
    format      ascii;
    class       volVectorField;
    location    "2";
    object      U;
}
// * * * * * * * * * * * * * * * * * * * * * * * * * * * * * * * * * * * * * //

dimensions      [0 1 -1 0 0 0 0];

internalField   nonuniform List<vector> 
25
(
(1.00857 6.01176e-07 1.04116e-27)
(1.00848 -1.4078e-06 -3.25961e-23)
(1.00876 8.70082e-07 -3.26301e-23)
(1.00814 -2.07792e-05 -3.25659e-23)
(1.01019 -6.76219e-05 -4.75423e-25)
(0.927881 2.02107e-06 -7.17374e-37)
(0.927796 -4.58782e-06 2.82247e-23)
(0.928058 4.3054e-06 3.89126e-27)
(0.927462 -5.78662e-05 -2.84377e-23)
(0.928834 -0.000140159 -2.82114e-23)
(0.766511 3.20424e-06 -2.76042e-23)
(0.766439 -7.01622e-06 -7.32325e-26)
(0.766658 9.14666e-06 2.82325e-23)
(0.766138 -6.78056e-05 -5.63685e-23)
(0.766956 -6.5922e-05 -5.63199e-23)
(0.524456 2.93326e-06 5.52957e-23)
(0.524403 -6.22375e-06 2.81421e-23)
(0.524559 9.65052e-06 -5.64634e-23)
(0.524182 -4.60301e-05 -2.79432e-23)
(0.524658 8.178e-06 5.7258e-23)
(0.201714 1.09346e-06 3.97192e-23)
(0.201692 -2.28882e-06 2.01062e-23)
(0.201758 3.7615e-06 -6.03577e-23)
(0.2016 -1.47062e-05 -2.0091e-23)
(0.20179 1.01559e-05 4.02451e-23)
)
;

boundaryField
{
    top
    {
        type            fixedValue;
        value           uniform (0 0 0);
    }
    bottom
    {
        type            symmetryPlane;
    }
    inlet
    {
        type            pressureInletVelocity;
        value           nonuniform List<vector> 5((1.00856 -0 -0) (0.927873 -0 -0) (0.766503 -0 -0) (0.524448 -0 -0) (0.201709 -0 -0));
    }
    outlet
    {
        type            inletOutlet;
        inletValue      nonuniform 0();
        value           nonuniform 0();
    }
    frontAndBack
    {
        type            empty;
    }
    procBoundary0to1
    {
        type            processor;
        value           nonuniform List<vector> 5((1.00738 -0.00099939 6.64651e-23) (0.926307 -0.00420675 1.64416e-23) (0.764951 -0.00252137 2.6518e-23) (0.523362 -0.000774396 6.58593e-23) (0.201339 -0.000142907 3.81378e-23));
    }
}


// ************************************************************************* //
