/*--------------------------------*- C++ -*----------------------------------*\
| =========                 |                                                 |
| \\      /  F ield         | OpenFOAM: The Open Source CFD Toolbox           |
|  \\    /   O peration     | Version:  5.0                                   |
|   \\  /    A nd           | Web:      www.OpenFOAM.org                      |
|    \\/     M anipulation  |                                                 |
\*---------------------------------------------------------------------------*/
FoamFile
{
    version     2.0;
    format      ascii;
    class       volVectorField;
    location    "2";
    object      U;
}
// * * * * * * * * * * * * * * * * * * * * * * * * * * * * * * * * * * * * * //

dimensions      [0 1 -1 0 0 0 0];

internalField   nonuniform List<vector> 
50
(
(1.00749 1.24903e-17 -1.42527e-36)
(1.00749 -7.858e-17 1.50409e-36)
(1.00749 -2.41858e-17 1.19676e-53)
(1.00749 9.32588e-18 -9.9171e-38)
(1.00749 -7.01217e-17 9.15383e-50)
(1.00749 9.76384e-17 7.76152e-51)
(1.00749 -9.9585e-17 1.75877e-36)
(1.00749 -4.72103e-17 -1.81692e-36)
(1.00749 -2.3481e-17 -1.90049e-36)
(1.00749 -1.30717e-16 -2.05311e-37)
(1.00749 5.70766e-17 4.45016e-38)
(1.00749 -8.05541e-17 1.65767e-50)
(1.00749 -5.54524e-17 1.26074e-54)
(1.00749 4.86857e-17 -1.67156e-37)
(1.00749 -1.59144e-16 -4.14257e-37)
(1.00749 9.18843e-17 -1.89312e-36)
(1.00749 -8.18402e-17 -5.81413e-38)
(1.00749 -3.23659e-17 -3.63383e-39)
(1.00749 1.28483e-16 -3.71559e-36)
(1.00749 -1.36587e-16 4.10623e-37)
(1.00749 6.70524e-17 3.51683e-36)
(1.00749 -1.38988e-16 7.20589e-36)
(1.00749 -6.52127e-17 -5.45075e-39)
(1.00749 1.11345e-16 -8.35781e-38)
(1.00749 -8.39659e-17 2.22754e-36)
(1.00749 -3.48201e-17 9.62196e-38)
(1.00749 -1.75126e-16 1.09633e-35)
(1.00749 1.57472e-17 -3.62293e-36)
(1.00749 1.59881e-16 -1.25995e-52)
(1.00749 -1.40705e-16 -2.01678e-37)
(1.00749 -3.66097e-17 6.84349e-51)
(1.00749 -4.69821e-17 -2.58199e-51)
(1.00749 -1.14329e-17 -1.81692e-36)
(1.00749 1.89346e-16 4.51092e-50)
(1.00749 -2.00544e-16 -1.81692e-36)
(1.00749 -5.63854e-17 4.81098e-38)
(1.00749 -4.91482e-18 1.93683e-36)
(1.00749 -1.26411e-16 -5.45075e-39)
(1.00749 2.10172e-16 4.75424e-50)
(1.00749 -1.26814e-16 5.99582e-37)
(1.00749 -1.88026e-17 0)
(1.00749 7.91492e-18 -1.75696e-36)
(1.00749 -8.9854e-17 5.45075e-39)
(1.00749 2.18736e-16 1.48589e-49)
(1.00749 -1.07476e-16 -7.26766e-36)
(1.00749 -1.54115e-17 8.82335e-38)
(1.00749 -1.26936e-17 -2.17928e-36)
(1.00749 -6.56312e-17 6.87832e-39)
(1.00749 2.28587e-16 -1.75397e-37)
(1.00749 -1.5443e-16 -4.58555e-36)
)
;

boundaryField
{
    top
    {
        type            zeroGradient;
    }
    bottom
    {
        type            symmetryPlane;
    }
    inlet
    {
        type            pressureInletVelocity;
        value           nonuniform List<vector> 10((1.00749 -0 -0) (1.00749 -0 -0) (1.00749 -0 -0) (1.00749 -0 -0) (1.00749 -0 -0) (1.00749 -0 -0) (1.00749 -0 -0) (1.00749 -0 -0) (1.00749 -0 -0) (1.00749 -0 -0));
    }
    outlet
    {
        type            inletOutlet;
        inletValue      nonuniform 0();
        value           nonuniform 0();
    }
    frontAndBack
    {
        type            empty;
    }
    procBoundary0to1
    {
        type            processor;
        value           nonuniform List<vector> 10((1.00749 -1.30677e-16 6.2952e-37) (1.00749 -2.26985e-16 1.55346e-36) (1.00749 -2.29631e-16 2.63453e-37) (1.00749 -2.63164e-16 5.19638e-37) (1.00749 -3.35613e-16 5.16004e-37) (1.00749 -3.98966e-16 8.41669e-49) (1.00749 -4.52018e-16 -2.06947e-36) (1.00749 -5.36772e-16 -3.63383e-36) (1.00749 -5.22818e-16 -1.81692e-36) (1.00749 -5.42826e-16 -1.84224e-36));
    }
}


// ************************************************************************* //
