/*--------------------------------*- C++ -*----------------------------------*\
| =========                 |                                                 |
| \\      /  F ield         | OpenFOAM: The Open Source CFD Toolbox           |
|  \\    /   O peration     | Version:  5.0                                   |
|   \\  /    A nd           | Web:      www.OpenFOAM.org                      |
|    \\/     M anipulation  |                                                 |
\*---------------------------------------------------------------------------*/
FoamFile
{
    version     2.0;
    format      ascii;
    class       surfaceScalarField;
    location    "4.5";
    object      phi;
}
// * * * * * * * * * * * * * * * * * * * * * * * * * * * * * * * * * * * * * //

dimensions      [0 3 -1 0 0 0 0];

internalField   nonuniform List<scalar> 
85
(
0.000196879
5.49781e-07
0.000197002
-1.23446e-07
0.000196982
1.94782e-08
0.000196711
2.7132e-07
0.000196641
7.02488e-08
0.000192356
4.2848e-06
0.00018793
4.42605e-06
0.000187254
6.7648e-07
0.000186887
3.66916e-07
3.00879e-07
0.000157826
-1.95954e-07
0.000157692
1.02375e-08
0.00015768
3.18539e-08
0.000157779
1.72588e-07
0.000157431
4.17699e-07
0.000158711
3.00495e-06
0.000159521
3.6161e-06
0.00015956
6.37888e-07
0.000159656
2.70216e-07
9.8014e-07
0.000118599
-1.21247e-06
0.00011835
2.59245e-07
0.00011835
3.15044e-08
0.000118556
-3.34554e-08
0.000118222
7.52257e-07
0.000120553
6.73605e-07
0.000122444
1.72493e-06
0.000122798
2.83711e-07
0.000123167
-9.84832e-08
1.61505e-06
7.90632e-05
-1.28389e-06
7.89633e-05
3.59196e-07
7.89822e-05
1.25674e-08
7.90884e-05
-1.39671e-07
7.9165e-05
6.75651e-07
8.0192e-05
-3.53367e-07
8.13262e-05
5.90666e-07
8.15673e-05
4.2695e-08
8.18054e-05
-3.3653e-07
1.4045e-06
3.92674e-05
3.96266e-05
3.96391e-05
3.94995e-05
4.01751e-05
3.98217e-05
4.04124e-05
4.04551e-05
4.01186e-05
)
;

boundaryField
{
    top
    {
        type            calculated;
        value           uniform 0;
    }
    bottom
    {
        type            symmetryPlane;
        value           uniform 0;
    }
    inlet
    {
        type            calculated;
        value           nonuniform List<scalar> 5(-0.000197428 -0.00015708 -0.000117582 -7.89918e-05 -4.05513e-05);
    }
    outlet
    {
        type            calculated;
        value           nonuniform List<scalar> 5(0.000186586 0.000158977 0.000122532 8.2016e-05 4.15231e-05);
    }
    frontAndBack
    {
        type            empty;
        value           nonuniform 0();
    }
}


// ************************************************************************* //
