/*--------------------------------*- C++ -*----------------------------------*\
| =========                 |                                                 |
| \\      /  F ield         | OpenFOAM: The Open Source CFD Toolbox           |
|  \\    /   O peration     | Version:  5.0                                   |
|   \\  /    A nd           | Web:      www.OpenFOAM.org                      |
|    \\/     M anipulation  |                                                 |
\*---------------------------------------------------------------------------*/
FoamFile
{
    version     2.0;
    format      ascii;
    class       volVectorField;
    location    "4.5";
    object      U;
}
// * * * * * * * * * * * * * * * * * * * * * * * * * * * * * * * * * * * * * //

dimensions      [0 1 -1 0 0 0 0];

internalField   nonuniform List<vector> 
50
(
(0.986276 0.00422366 6.14975e-23)
(0.985385 -7.57657e-06 -4.39737e-23)
(0.984007 1.69601e-06 -4.61724e-23)
(0.985873 5.92067e-05 -4.61322e-23)
(0.981193 -0.00205176 3.29814e-23)
(0.985368 0.00241454 9.08006e-23)
(0.939611 0.000871305 1.29202e-23)
(0.937442 0.000170076 -4.53926e-23)
(0.936087 0.000102583 5.20781e-24)
(0.932831 -0.00212485 8.52201e-24)
(0.786148 0.00347633 -8.95568e-37)
(0.789623 -3.97369e-05 4.68478e-23)
(0.787758 3.18895e-05 5.36246e-26)
(0.789576 0.000249025 -3.73614e-23)
(0.786648 -0.00135349 -4.09475e-23)
(0.789871 0.00554133 -3.46576e-23)
(0.796566 0.00403346 -5.9465e-23)
(0.797959 0.000736761 6.57432e-23)
(0.798567 0.000340147 6.53941e-24)
(0.795584 -0.000823533 -1.48581e-22)
(0.589211 -8.74182e-05 -2.58732e-23)
(0.592921 0.00019523 -2.95776e-26)
(0.5913 3.30889e-05 2.75384e-23)
(0.592747 3.51324e-05 -5.57491e-23)
(0.591119 0.000274305 -5.46201e-23)
(0.593506 0.00254878 4.81441e-23)
(0.610722 0.00306307 4.06496e-23)
(0.613773 0.000478134 3.03819e-23)
(0.614966 2.75504e-05 -1.23605e-24)
(0.613649 -0.000456745 -5.72661e-23)
(0.39513 -0.00265941 -1.44185e-22)
(0.395006 0.000313414 3.13505e-23)
(0.394706 2.29039e-05 -4.12013e-23)
(0.39527 -9.55585e-05 -1.5889e-23)
(0.395296 0.00143893 -5.21575e-23)
(0.396744 -0.000590867 1.2299e-22)
(0.405155 0.0011393 1.18357e-23)
(0.407871 0.000148281 -2.58053e-24)
(0.407954 -0.00023718 -2.14727e-23)
(0.410057 0.00278346 -1.85502e-22)
(0.200824 -0.0113056 3.64524e-23)
(0.197126 4.40531e-05 1.57045e-23)
(0.19813 1.62485e-05 -4.94728e-23)
(0.197813 -2.84038e-06 -1.50658e-23)
(0.199138 0.00565553 3.40528e-23)
(0.199603 -0.0051668 7.9533e-25)
(0.200866 0.000632834 1.65037e-23)
(0.202405 0.000111791 1.10192e-24)
(0.20125 -1.56357e-05 0)
(0.205537 0.0115103 0)
)
;

boundaryField
{
    top
    {
        type            fixedValue;
        value           uniform (0 0 0);
    }
    bottom
    {
        type            symmetryPlane;
    }
    inlet
    {
        type            pressureInletVelocity;
        value           nonuniform List<vector> 5((0.987142 0 0) (0.785401 0 0) (0.587912 0 0) (0.394959 0 0) (0.202756 0 0));
    }
    outlet
    {
        type            inletOutlet;
        inletValue      uniform (1 0 0);
        value           nonuniform List<vector> 5((0.932831 -0.00212485 8.52201e-24) (0.795584 -0.000823533 -1.48581e-22) (0.613649 -0.000456745 -5.72661e-23) (0.410057 0.00278346 -1.85502e-22) (0.205537 0.0115103 0));
    }
    frontAndBack
    {
        type            empty;
    }
}


// ************************************************************************* //
