/*--------------------------------*- C++ -*----------------------------------*\
| =========                 |                                                 |
| \\      /  F ield         | OpenFOAM: The Open Source CFD Toolbox           |
|  \\    /   O peration     | Version:  5.0                                   |
|   \\  /    A nd           | Web:      www.OpenFOAM.org                      |
|    \\/     M anipulation  |                                                 |
\*---------------------------------------------------------------------------*/
FoamFile
{
    version     2.0;
    format      ascii;
    class       surfaceScalarField;
    location    "135";
    object      phi;
}
// * * * * * * * * * * * * * * * * * * * * * * * * * * * * * * * * * * * * * //

dimensions      [0 3 -1 0 0 0 0];

internalField   nonuniform List<scalar> 
3052
(
-9.72614e-21
-4.15708e-20
-2.83324e-20
6.47406e-21
2.36446e-19
-2.79366e-19
4.4245e-19
-2.24147e-19
6.0388e-19
-1.72976e-19
8.44067e-19
-2.51572e-19
1.09975e-18
-2.65157e-19
1.34848e-18
-2.57509e-19
1.60521e-18
-2.66757e-19
1.86921e-18
-2.73714e-19
2.12999e-18
-2.69935e-19
2.38443e-18
-2.63083e-19
2.63034e-18
-2.54173e-19
2.86484e-18
-2.42321e-19
3.0847e-18
-2.2807e-19
3.28834e-18
-2.11611e-19
3.47257e-18
-1.92266e-19
3.63767e-18
-1.72567e-19
3.7805e-18
-1.50425e-19
3.90075e-18
-1.27047e-19
3.99643e-18
-1.02209e-19
4.07165e-18
-8.04175e-20
4.12291e-18
-5.58604e-20
4.15216e-18
-3.21923e-20
4.15695e-18
-7.4373e-21
4.14125e-18
1.41001e-20
4.1002e-18
3.93968e-20
4.03984e-18
5.98502e-20
3.95811e-18
8.10864e-20
3.86238e-18
9.62191e-20
3.74875e-18
1.15151e-19
3.62356e-18
1.29552e-19
3.48292e-18
1.46705e-19
3.33352e-18
1.57478e-19
3.17196e-18
1.7011e-19
3.00493e-18
1.76654e-19
2.82781e-18
1.86405e-19
2.64745e-18
1.90219e-19
2.46085e-18
1.9605e-19
2.27226e-18
1.97769e-19
2.07999e-18
1.99905e-19
1.88967e-18
1.97631e-19
1.69873e-18
1.97401e-19
1.51151e-18
1.9391e-19
1.32722e-18
1.90953e-19
1.14935e-18
1.84982e-19
9.77559e-19
1.79133e-19
8.14379e-19
1.70671e-19
6.59534e-19
1.61879e-19
5.17304e-19
1.49948e-19
3.84148e-19
1.39074e-19
2.67234e-19
1.21901e-19
1.76099e-19
1.01478e-19
7.14169e-20
1.03823e-19
2.40695e-20
4.86543e-20
2.40388e-20
1.28628e-19
-1.78818e-19
2.22847e-19
-1.13673e-19
2.0987e-19
-3.30491e-19
3.27846e-19
-3.71152e-19
5.62893e-19
-4.44466e-19
7.63374e-19
-4.79007e-19
9.73306e-19
-4.96501e-19
1.20814e-18
-5.15913e-19
1.44684e-18
-5.28605e-19
1.68277e-18
-5.32923e-19
1.91935e-18
-5.28081e-19
2.15285e-18
-5.16507e-19
2.37839e-18
-4.98631e-19
2.59207e-18
-4.76192e-19
2.7932e-18
-4.48352e-19
2.97851e-18
-4.16365e-19
3.14807e-18
-3.79793e-19
3.29814e-18
-3.40758e-19
3.42959e-18
-2.97681e-19
3.54027e-18
-2.5317e-19
3.63208e-18
-2.06398e-19
3.70116e-18
-1.60992e-19
3.7511e-18
-1.13307e-19
3.77875e-18
-6.6872e-20
3.7863e-18
-1.89959e-20
3.76987e-18
2.63769e-20
3.73539e-18
7.25189e-20
3.68027e-18
1.13093e-19
3.6099e-18
1.52501e-19
3.52086e-18
1.88097e-19
3.41952e-18
2.25283e-19
3.30416e-18
2.57293e-19
3.1803e-18
2.88554e-19
3.04389e-18
3.13584e-19
2.8996e-18
3.37056e-19
2.7445e-18
3.53615e-19
2.58539e-18
3.6925e-19
2.41901e-18
3.79035e-19
2.25007e-18
3.87157e-19
2.07672e-18
3.90053e-19
1.90271e-18
3.922e-19
1.72543e-18
3.90044e-19
1.55082e-18
3.87556e-19
1.378e-18
3.81683e-19
1.20996e-18
3.75109e-19
1.04613e-18
3.65317e-19
8.89017e-19
3.53403e-19
7.38828e-19
3.37522e-19
5.99008e-19
3.2043e-19
4.6628e-19
2.97108e-19
3.47048e-19
2.74779e-19
2.41531e-19
2.47618e-19
1.38818e-19
2.01704e-19
8.85669e-20
1.69145e-19
2.55033e-20
1.04958e-19
4.91615e-20
-5.04128e-20
-1.32199e-19
7.44053e-20
-2.80211e-19
1.79627e-19
-4.49403e-19
3.22637e-19
-5.41813e-19
4.75719e-19
-6.09983e-19
6.59615e-19
-6.68043e-19
8.57087e-19
-6.98466e-19
1.06571e-18
-7.28042e-19
1.28039e-18
-7.47408e-19
1.4968e-18
-7.51511e-19
1.71152e-18
-7.4404e-19
1.92114e-18
-7.27965e-19
2.12402e-18
-7.04573e-19
2.31807e-18
-6.72378e-19
2.49996e-18
-6.32878e-19
2.6685e-18
-5.86622e-19
2.82216e-18
-5.35088e-19
2.95938e-18
-4.78156e-19
3.07905e-18
-4.17887e-19
3.18108e-18
-3.54524e-19
3.2645e-18
-2.89847e-19
3.32858e-18
-2.23776e-19
3.37301e-18
-1.57605e-19
3.39826e-18
-9.07318e-20
3.40454e-18
-2.47645e-20
3.39241e-18
4.02215e-20
3.36301e-18
1.02438e-19
3.31646e-18
1.61489e-19
3.25339e-18
2.16536e-19
3.17546e-18
2.6831e-19
3.0851e-18
3.17361e-19
2.98249e-18
3.63165e-19
2.86874e-18
4.04224e-19
2.74507e-18
4.39721e-19
2.61347e-18
4.69829e-19
2.47444e-18
4.95156e-19
2.32939e-18
5.15542e-19
2.17925e-18
5.30981e-19
2.02542e-18
5.41789e-19
1.86838e-18
5.48294e-19
1.70979e-18
5.50196e-19
1.55112e-18
5.49138e-19
1.39333e-18
5.45159e-19
1.23707e-18
5.38304e-19
1.08431e-18
5.27878e-19
9.36044e-19
5.14216e-19
7.93452e-19
4.96959e-19
6.57572e-19
4.75677e-19
5.29811e-19
4.49894e-19
4.1265e-19
4.21364e-19
3.04209e-19
3.83189e-19
2.07064e-19
3.38694e-19
1.32162e-19
2.95511e-19
5.55799e-20
2.26865e-19
1.0074e-20
1.51417e-19
5.92037e-20
-3.03699e-20
-1.06282e-19
7.56385e-20
-3.9058e-19
1.40664e-19
-5.2206e-19
2.57308e-19
-6.5946e-19
4.09119e-19
-7.57541e-19
5.6708e-19
-8.17301e-19
7.42438e-19
-8.64912e-19
9.29419e-19
-9.06106e-19
1.12107e-18
-9.27515e-19
1.31338e-18
-9.31585e-19
1.50494e-18
-9.24943e-19
1.69294e-18
-9.06562e-19
1.87432e-18
-8.76506e-19
2.04728e-18
-8.3611e-19
2.21023e-18
-7.86293e-19
2.36159e-18
-7.28194e-19
2.49969e-18
-6.62962e-19
2.62331e-18
-5.91893e-19
2.73166e-18
-5.1627e-19
2.82364e-18
-4.37399e-19
2.8988e-18
-3.56306e-19
2.95606e-18
-2.7417e-19
2.99601e-18
-1.91464e-19
3.01864e-18
-1.08679e-19
3.02496e-18
-2.67017e-20
3.01492e-18
5.34261e-20
2.99005e-18
1.30476e-19
2.9499e-18
2.03255e-19
2.89603e-18
2.71393e-19
2.82789e-18
3.35347e-19
2.74762e-18
3.94537e-19
2.6551e-18
4.48416e-19
2.55305e-18
4.96652e-19
2.44127e-18
5.39481e-19
2.32243e-18
5.76527e-19
2.19638e-18
6.0807e-19
2.06567e-18
6.33506e-19
1.9302e-18
6.53457e-19
1.79199e-18
6.67657e-19
1.65161e-18
6.76689e-19
1.51059e-18
6.8105e-19
1.36905e-18
6.81047e-19
1.22862e-18
6.76364e-19
1.08978e-18
6.67519e-19
9.53742e-19
6.54487e-19
8.21284e-19
6.37354e-19
6.93965e-19
6.15369e-19
5.73293e-19
5.8914e-19
4.61201e-19
5.58305e-19
3.55395e-19
5.18425e-19
2.60062e-19
4.74339e-19
1.77707e-19
4.27602e-19
9.73528e-20
3.51114e-19
5.63328e-20
2.7976e-19
2.1115e-20
1.79982e-19
8.0037e-20
4.32158e-20
-1.50223e-19
5.46049e-20
-3.91208e-19
1.30776e-19
-5.92667e-19
2.23981e-19
-7.44903e-19
3.4534e-19
-8.67891e-19
4.82407e-19
-9.48072e-19
6.34951e-19
-1.0128e-18
7.97077e-19
-1.06107e-18
9.64347e-19
-1.08585e-18
1.13391e-18
-1.0931e-18
1.30186e-18
-1.08591e-18
1.46635e-18
-1.06443e-18
1.62587e-18
-1.0292e-18
1.77831e-18
-9.81589e-19
1.92199e-18
-9.22708e-19
2.05567e-18
-8.54462e-19
2.17766e-18
-7.7771e-19
2.287e-18
-6.94308e-19
2.38272e-18
-6.0547e-19
2.46436e-18
-5.12847e-19
2.53076e-18
-4.17526e-19
2.58172e-18
-3.2075e-19
2.61681e-18
-2.23108e-19
2.63683e-18
-1.25854e-19
2.64197e-18
-2.96418e-20
2.63345e-18
6.4037e-20
2.61128e-18
1.5406e-19
2.5765e-18
2.39289e-19
2.52911e-18
3.19252e-19
2.47016e-18
3.93456e-19
2.39958e-18
4.61611e-19
2.31846e-18
5.2386e-19
2.22727e-18
5.7983e-19
2.12847e-18
6.29474e-19
2.02281e-18
6.72552e-19
1.91188e-18
7.09296e-19
1.79598e-18
7.3943e-19
1.67673e-18
7.63146e-19
1.55451e-18
7.809e-19
1.43092e-18
7.92686e-19
1.3069e-18
7.98603e-19
1.18355e-18
7.98818e-19
1.06061e-18
7.93948e-19
9.39235e-19
7.83742e-19
8.2005e-19
7.68459e-19
7.04396e-19
7.48008e-19
5.93506e-19
7.22413e-19
4.88858e-19
6.90781e-19
3.90785e-19
6.52864e-19
3.01765e-19
6.10072e-19
2.19795e-19
5.55274e-19
1.45497e-19
4.8712e-19
9.13556e-20
4.22447e-19
3.14498e-20
3.23987e-19
-1.86771e-21
2.1493e-19
7.83626e-20
1.92761e-20
-1.63986e-19
5.20024e-20
-4.12856e-19
1.1055e-19
-6.39429e-19
1.95582e-19
-8.19476e-19
2.92566e-19
-9.62288e-19
4.06602e-19
-1.0635e-18
5.3473e-19
-1.14184e-18
6.71069e-19
-1.19655e-18
8.12548e-19
-1.22643e-18
9.56998e-19
-1.23705e-18
1.10122e-18
-1.22994e-18
1.24319e-18
-1.20602e-18
1.38093e-18
-1.16622e-18
1.51263e-18
-1.11214e-18
1.63708e-18
-1.04575e-18
1.75249e-18
-9.68605e-19
1.85784e-18
-8.82061e-19
1.95202e-18
-7.8779e-19
2.03457e-18
-6.87339e-19
2.10444e-18
-5.82308e-19
2.16149e-18
-4.74135e-19
2.20506e-18
-3.64048e-19
2.23537e-18
-2.53224e-19
2.25229e-18
-1.42886e-19
2.25669e-18
-3.4044e-20
2.24868e-18
7.19422e-20
2.22917e-18
1.73872e-19
2.19831e-18
2.70739e-19
2.15677e-18
3.61591e-19
2.1048e-18
4.45891e-19
2.04325e-18
5.23269e-19
1.97265e-18
5.93541e-19
1.89446e-18
6.56804e-19
1.80934e-18
7.12843e-19
1.71837e-18
7.616e-19
1.62235e-18
8.03022e-19
1.52249e-18
8.37299e-19
1.41936e-18
8.64405e-19
1.31428e-18
8.84683e-19
1.208e-18
8.98334e-19
1.10148e-18
9.05405e-19
9.95046e-19
9.06114e-19
8.89673e-19
9.00676e-19
7.85795e-19
8.89051e-19
6.84438e-19
8.71487e-19
5.86497e-19
8.47978e-19
4.93073e-19
8.17928e-19
4.05025e-19
7.81703e-19
3.24309e-19
7.39246e-19
2.49644e-19
6.85631e-19
1.82021e-19
6.24111e-19
1.24133e-19
5.57911e-19
6.62626e-20
4.63663e-19
3.7038e-20
3.61389e-19
1.47945e-20
2.36628e-19
9.31019e-20
3.94349e-21
-1.64695e-19
4.62463e-20
-4.45483e-19
9.78062e-20
-6.83154e-19
1.63879e-19
-8.8275e-19
2.40037e-19
-1.03932e-18
3.31805e-19
-1.15757e-18
4.36092e-19
-1.24749e-18
5.48215e-19
-1.30953e-18
6.65862e-19
-1.34504e-18
7.86127e-19
-1.35854e-18
9.06657e-19
-1.35177e-18
1.02557e-18
-1.32593e-18
1.1412e-18
-1.28247e-18
1.25215e-18
-1.2234e-18
1.3569e-18
-1.15075e-18
1.45405e-18
-1.06604e-18
1.54256e-18
-9.71039e-19
1.62167e-18
-8.67401e-19
1.69063e-18
-7.57e-19
1.74906e-18
-6.41284e-19
1.79652e-18
-5.22022e-19
1.8328e-18
-4.00625e-19
1.85774e-18
-2.78571e-19
1.87151e-18
-1.56976e-19
1.87436e-18
-3.73595e-20
1.86689e-18
7.92106e-20
1.84949e-18
1.91245e-19
1.82279e-18
2.97796e-19
1.78697e-18
3.97936e-19
1.74262e-18
4.91085e-19
1.69002e-18
5.76535e-19
1.63013e-18
6.54241e-19
1.56357e-18
7.23945e-19
1.49125e-18
7.85532e-19
1.41389e-18
8.38989e-19
1.33261e-18
8.84482e-19
1.24809e-18
9.21948e-19
1.16119e-18
9.51603e-19
1.07272e-18
9.73588e-19
9.83599e-19
9.8831e-19
8.94412e-19
9.95808e-19
8.05841e-19
9.96345e-19
7.18347e-19
9.89883e-19
6.32538e-19
9.76678e-19
5.49138e-19
9.56812e-19
4.6897e-19
9.30274e-19
3.92824e-19
8.96865e-19
3.21905e-19
8.56121e-19
2.56304e-19
8.0696e-19
1.97027e-19
7.50542e-19
1.44217e-19
6.82143e-19
9.59512e-20
5.96648e-19
6.06306e-20
5.07284e-19
2.18115e-20
3.92216e-19
2.85023e-21
2.54721e-19
9.58869e-20
9.61612e-21
-1.72285e-19
3.62596e-20
-4.6939e-19
7.53606e-20
-7.20387e-19
1.24553e-19
-9.31343e-19
1.84738e-19
-1.10037e-18
2.58347e-19
-1.23163e-18
3.41186e-19
-1.33035e-18
4.30286e-19
-1.39896e-18
5.24609e-19
-1.43972e-18
6.21368e-19
-1.45589e-18
7.18661e-19
-1.44956e-18
8.14681e-19
-1.42231e-18
9.0829e-19
-1.37616e-18
9.98165e-19
-1.31318e-18
1.08298e-18
-1.23539e-18
1.16169e-18
-1.14456e-18
1.23347e-18
-1.04259e-18
1.29748e-18
-9.31348e-19
1.35323e-18
-8.12633e-19
1.40027e-18
-6.88194e-19
1.43828e-18
-5.59898e-19
1.46703e-18
-4.29249e-19
1.48647e-18
-2.97848e-19
1.49664e-18
-1.67191e-19
1.49791e-18
-3.87244e-20
1.49068e-18
8.62396e-20
1.4754e-18
2.06478e-19
1.45236e-18
3.20841e-19
1.42208e-18
4.28497e-19
1.38481e-18
5.28638e-19
1.34106e-18
6.20746e-19
1.29121e-18
7.04323e-19
1.23601e-18
7.79213e-19
1.17613e-18
8.45223e-19
1.11247e-18
9.02482e-19
1.04574e-18
9.50939e-19
9.76703e-19
9.90722e-19
9.05958e-19
1.02204e-18
8.34204e-19
1.04513e-18
7.62128e-19
1.06024e-18
6.90415e-19
1.0676e-18
6.19474e-19
1.06735e-18
5.49747e-19
1.0597e-18
4.81686e-19
1.04477e-18
4.15896e-19
1.02271e-18
3.53191e-19
9.93422e-19
2.94433e-19
9.56602e-19
2.4e-19
9.12011e-19
1.90635e-19
8.5934e-19
1.46665e-19
7.95526e-19
1.0703e-19
7.20552e-19
7.22269e-20
6.36789e-19
3.78522e-20
5.30129e-19
2.00487e-20
4.08379e-19
7.13636e-21
2.65393e-19
1.02897e-19
1.0028e-20
-1.8237e-19
2.52617e-20
-4.82892e-19
5.27993e-20
-7.46626e-19
8.87061e-20
-9.66813e-19
1.34822e-19
-1.14607e-18
1.89928e-19
-1.28659e-18
2.51658e-19
-1.39243e-18
3.18805e-19
-1.46638e-18
3.89845e-19
-1.51135e-18
4.63213e-19
-1.52992e-18
5.37511e-19
-1.5244e-18
6.11271e-19
-1.49636e-18
6.8331e-19
-1.44835e-18
7.52391e-19
-1.38244e-18
8.17633e-19
-1.30071e-18
8.78189e-19
-1.20511e-18
9.33258e-19
-1.09765e-18
9.82283e-19
-9.80329e-19
1.02477e-18
-8.55102e-19
1.06041e-18
-7.23852e-19
1.08886e-18
-5.88369e-19
1.11002e-18
-4.50451e-19
1.12375e-18
-3.11798e-19
1.13026e-18
-1.74025e-19
1.12969e-18
-3.85951e-20
1.12249e-18
9.3088e-20
1.10896e-18
2.19784e-19
1.08951e-18
3.40395e-19
1.06436e-18
4.53849e-19
1.03391e-18
5.59445e-19
9.98485e-19
6.56419e-19
9.58529e-19
7.44448e-19
9.14493e-19
8.23204e-19
8.67117e-19
8.9257e-19
8.17014e-19
9.52478e-19
7.64796e-19
1.00306e-18
7.10954e-19
1.04441e-18
6.56166e-19
1.07674e-18
6.00919e-19
1.10031e-18
5.45785e-19
1.11544e-18
4.91195e-19
1.12222e-18
4.37615e-19
1.12104e-18
3.85345e-19
1.11205e-18
3.34785e-19
1.09538e-18
2.86461e-19
1.07117e-18
2.41055e-19
1.03944e-18
1.99174e-19
9.99841e-19
1.61398e-19
9.5191e-19
1.27449e-19
8.94593e-19
9.75348e-20
8.27685e-19
7.20006e-20
7.49542e-19
4.78958e-20
6.54747e-19
2.85944e-20
5.48118e-19
9.70352e-21
4.23293e-19
-1.29357e-21
2.73332e-19
1.01488e-19
3.69848e-21
-1.85138e-19
1.50064e-20
-4.92237e-19
3.36136e-20
-7.63425e-19
5.85218e-20
-9.90296e-19
8.93038e-20
-1.17629e-18
1.25509e-19
-1.32308e-18
1.66962e-19
-1.43442e-18
2.12778e-19
-1.51302e-18
2.61748e-19
-1.5613e-18
3.12911e-19
-1.58193e-18
3.64963e-19
-1.57714e-18
4.16921e-19
-1.54882e-18
4.67823e-19
-1.4998e-18
5.16771e-19
-1.43187e-18
5.62877e-19
-1.34732e-18
6.0559e-19
-1.24825e-18
6.44268e-19
-1.13673e-18
6.78557e-19
-1.01497e-18
7.07981e-19
-8.84885e-19
7.32309e-19
-7.48543e-19
7.51331e-19
-6.07775e-19
7.64944e-19
-4.64623e-19
7.7308e-19
-3.20589e-19
7.75778e-19
-1.77542e-19
7.73297e-19
-3.69233e-20
7.65989e-19
9.97487e-20
7.54219e-19
2.31321e-19
7.38257e-19
3.56515e-19
7.18286e-19
4.74306e-19
6.94506e-19
5.83757e-19
6.67145e-19
6.84233e-19
6.36605e-19
7.75244e-19
6.03491e-19
8.56579e-19
5.68201e-19
9.28086e-19
5.31206e-19
9.89741e-19
4.92915e-19
1.04157e-18
4.53903e-19
1.08372e-18
4.14565e-19
1.11645e-18
3.75362e-19
1.14002e-18
3.36603e-19
1.15469e-18
2.98777e-19
1.16064e-18
2.62137e-19
1.15832e-18
2.26947e-19
1.14792e-18
1.93511e-19
1.12956e-18
1.62251e-19
1.10342e-18
1.33675e-19
1.06936e-18
1.08391e-19
1.0272e-18
8.6273e-20
9.76377e-19
6.72891e-20
9.16531e-19
5.16325e-20
8.46027e-19
3.81856e-20
7.62632e-19
2.59475e-20
6.68534e-19
1.35991e-20
5.57379e-19
4.92754e-21
4.25327e-19
1.81803e-21
2.76443e-19
1.03277e-19
7.54117e-22
-1.85277e-19
7.61503e-21
-4.96394e-19
1.71557e-20
-7.70611e-19
2.98635e-20
-1.0014e-18
4.53151e-20
-1.19139e-18
6.43382e-20
-1.34239e-18
8.70201e-20
-1.45765e-18
1.12849e-19
-1.53953e-18
1.41154e-19
-1.59026e-18
1.70889e-19
-1.61231e-18
2.01544e-19
-1.60823e-18
2.32677e-19
-1.58041e-18
2.63173e-19
-1.53075e-18
2.92528e-19
-1.4617e-18
3.20189e-19
-1.3754e-18
3.4561e-19
-1.2741e-18
3.68428e-19
-1.15995e-18
3.88287e-19
-1.03524e-18
4.05003e-19
-9.01978e-19
4.18372e-19
-7.6226e-19
4.28233e-19
-6.18118e-19
4.34441e-19
-4.71445e-19
4.37062e-19
-3.2416e-19
4.36222e-19
-1.77819e-19
4.32111e-19
-3.39242e-20
4.24955e-19
1.06224e-19
4.14988e-19
2.41233e-19
4.02297e-19
3.69654e-19
3.87039e-19
4.90138e-19
3.69544e-19
6.01783e-19
3.50014e-19
7.04128e-19
3.28777e-19
7.96786e-19
3.0614e-19
8.79489e-19
2.82439e-19
9.52042e-19
2.57997e-19
1.01437e-18
2.33245e-19
1.06655e-18
2.08516e-19
1.10876e-18
1.84143e-19
1.14125e-18
1.60344e-19
1.16427e-18
1.37451e-19
1.17812e-18
1.15743e-19
1.18293e-18
9.54408e-20
1.17926e-18
7.67452e-20
1.16732e-18
5.98385e-20
1.1473e-18
4.49262e-20
1.11927e-18
3.24203e-20
1.08325e-18
2.26006e-20
1.03897e-18
1.56106e-20
9.86092e-19
1.0773e-20
9.23457e-19
7.75151e-21
8.50462e-19
7.03622e-21
7.67409e-19
5.09179e-21
6.6895e-19
9.02832e-22
5.54096e-19
8.85712e-22
4.27426e-19
-2.22962e-22
2.73175e-19
1.02839e-19
-9.76412e-22
-1.8332e-19
2.78337e-22
-4.95367e-19
1.2879e-21
-7.69279e-19
2.45263e-21
-1.0012e-18
4.05438e-21
-1.19252e-18
7.15833e-21
-1.34562e-18
1.21584e-20
-1.46297e-18
1.89292e-20
-1.54663e-18
2.75893e-20
-1.59925e-18
3.76719e-20
-1.62263e-18
4.83007e-20
-1.61918e-18
5.93271e-20
-1.59179e-18
7.02837e-20
-1.54204e-18
8.08608e-20
-1.47261e-18
9.07591e-20
-1.38561e-18
9.95993e-20
-1.28329e-18
1.07188e-19
-1.16795e-18
1.13263e-19
-1.04172e-18
1.17788e-19
-9.06855e-19
1.20584e-19
-7.65422e-19
1.21648e-19
-6.19651e-19
1.2084e-19
-4.71367e-19
1.18337e-19
-3.22448e-19
1.14123e-19
-1.74368e-19
1.08452e-19
-2.8651e-20
1.01387e-19
1.1329e-19
9.31022e-20
2.49739e-19
8.36183e-20
3.79298e-19
7.31303e-20
5.00742e-19
6.17243e-20
6.13224e-19
4.97213e-20
7.16203e-19
3.73531e-20
8.09273e-19
2.48081e-20
8.92106e-19
1.23024e-20
9.64603e-19
2.19992e-23
1.02673e-18
-1.17209e-20
1.07844e-18
-2.27399e-20
1.12001e-18
-3.27722e-20
1.15157e-18
-4.17465e-20
1.17359e-18
-4.95393e-20
1.18628e-18
-5.59833e-20
1.18979e-18
-6.06509e-20
1.18442e-18
-6.35671e-20
1.17084e-18
-6.48931e-20
1.14922e-18
-6.43865e-20
1.11954e-18
-6.18212e-20
1.08184e-18
-5.68939e-20
1.0359e-18
-5.00585e-20
9.81045e-19
-4.17635e-20
9.17293e-19
-3.1712e-20
8.44053e-19
-2.25867e-20
7.57056e-19
-1.42816e-20
6.58702e-19
-7.44495e-21
5.50224e-19
-8.23475e-21
4.16366e-19
-4.88601e-21
2.69825e-19
9.79017e-20
-2.13277e-21
-1.80761e-19
-6.20413e-21
-4.88779e-19
-1.32702e-20
-7.60095e-19
-2.28589e-20
-9.90225e-19
-3.39253e-20
-1.1809e-18
-4.54862e-20
-1.33411e-18
-5.67519e-20
-1.45189e-18
-6.73093e-20
-1.53629e-18
-7.73043e-20
-1.58948e-18
-8.66555e-20
-1.6136e-18
-9.51329e-20
-1.61108e-18
-1.03051e-19
-1.58431e-18
-1.10411e-19
-1.53516e-18
-1.1747e-19
-1.46599e-18
-1.24383e-19
-1.37919e-18
-1.31272e-19
-1.27698e-18
-1.38183e-19
-1.16166e-18
-1.45147e-19
-1.03536e-18
-1.5221e-19
-9.00338e-19
-1.5939e-19
-7.58791e-19
-1.66767e-19
-6.12786e-19
-1.74165e-19
-4.64205e-19
-1.81532e-19
-3.1492e-19
-1.88616e-19
-1.66606e-19
-1.95452e-19
-2.08736e-20
-2.02149e-19
1.20674e-19
-2.08877e-19
2.56478e-19
-2.15481e-19
3.85274e-19
-2.21658e-19
5.05991e-19
-2.27091e-19
6.17858e-19
-2.3162e-19
7.20261e-19
-2.35303e-19
8.12703e-19
-2.38119e-19
8.94836e-19
-2.39958e-19
9.66443e-19
-2.40617e-19
1.02749e-18
-2.39987e-19
1.07803e-18
-2.37988e-19
1.11832e-18
-2.34615e-19
1.14856e-18
-2.2957e-19
1.16895e-18
-2.22598e-19
1.17974e-18
-2.14058e-19
1.18175e-18
-2.04119e-19
1.17513e-18
-1.92642e-19
1.16004e-18
-1.79502e-19
1.13683e-18
-1.64724e-19
1.10563e-18
-1.48123e-19
1.06646e-18
-1.29775e-19
1.01918e-18
-1.09864e-19
9.63657e-19
-8.9091e-20
8.98754e-19
-6.87522e-20
8.23421e-19
-4.78008e-20
7.40362e-19
-3.10094e-20
6.43433e-19
-2.19086e-20
5.27653e-19
-6.37572e-21
4.06037e-19
-6.70949e-22
2.57826e-19
9.68923e-20
-3.85537e-21
-1.75966e-19
-1.26729e-20
-4.78167e-19
-2.6792e-20
-7.4403e-19
-4.57396e-20
-9.69635e-19
-6.86383e-20
-1.15747e-18
-9.38685e-20
-1.30887e-18
-1.2043e-19
-1.42554e-18
-1.47491e-19
-1.50948e-18
-1.74637e-19
-1.56265e-18
-2.01294e-19
-1.58732e-18
-2.27423e-19
-1.58545e-18
-2.53152e-19
-1.55914e-18
-2.7797e-19
-1.51094e-18
-3.01761e-19
-1.44282e-18
-3.24541e-19
-1.35712e-18
-3.46181e-19
-1.25609e-18
-3.66675e-19
-1.14192e-18
-3.85923e-19
-1.01683e-18
-4.03921e-19
-8.83067e-19
-4.2053e-19
-7.42755e-19
-4.35683e-19
-5.97856e-19
-4.49131e-19
-4.5045e-19
-4.60672e-19
-3.02449e-19
-4.70163e-19
-1.55621e-19
-4.7799e-19
-1.16994e-20
-4.8436e-19
1.27654e-19
-4.89478e-19
2.61107e-19
-4.93074e-19
3.87629e-19
-4.94893e-19
5.06321e-19
-4.94556e-19
6.16435e-19
-4.92077e-19
7.17144e-19
-4.87501e-19
8.07885e-19
-4.80978e-19
8.88227e-19
-4.7253e-19
9.58062e-19
-4.62087e-19
1.01725e-18
-4.49693e-19
1.066e-18
-4.35306e-19
1.10435e-18
-4.18935e-19
1.13268e-18
-4.00629e-19
1.15112e-18
-3.80563e-19
1.16024e-18
-3.58704e-19
1.16058e-18
-3.35087e-19
1.1523e-18
-3.09897e-19
1.13569e-18
-2.83275e-19
1.11106e-18
-2.55288e-19
1.07857e-18
-2.25891e-19
1.03837e-18
-1.95064e-19
9.90383e-19
-1.63512e-19
9.33862e-19
-1.32157e-19
8.69144e-19
-1.00649e-19
7.96764e-19
-7.21032e-20
7.10591e-19
-4.72699e-20
6.13434e-19
-2.40994e-20
5.1256e-19
-1.85726e-20
3.84137e-19
-9.15397e-21
2.48522e-19
8.77135e-20
-4.98868e-21
-1.70708e-19
-1.79282e-20
-4.62863e-19
-3.85e-20
-7.2082e-19
-6.66787e-20
-9.40136e-19
-1.00343e-19
-1.12321e-18
-1.3818e-19
-1.27104e-18
-1.78793e-19
-1.38515e-18
-2.20972e-19
-1.46758e-18
-2.63897e-19
-1.52002e-18
-3.07062e-19
-1.54455e-18
-3.4988e-19
-1.54308e-18
-3.91864e-19
-1.51768e-18
-4.32662e-19
-1.47067e-18
-4.71943e-19
-1.40418e-18
-5.09361e-19
-1.32034e-18
-5.44673e-19
-1.22141e-18
-5.77671e-19
-1.10954e-18
-6.08228e-19
-9.86948e-19
-6.3613e-19
-8.55735e-19
-6.61298e-19
-7.18057e-19
-6.83433e-19
-5.75963e-19
-7.02362e-19
-4.31457e-19
-7.1782e-19
-2.86364e-19
-7.30028e-19
-1.42714e-19
-7.39007e-19
-2.15307e-21
-7.45099e-19
1.33699e-19
-7.48274e-19
2.63739e-19
-7.48507e-19
3.86943e-19
-7.45469e-19
5.02604e-19
-7.39233e-19
6.09713e-19
-7.29796e-19
7.07534e-19
-7.17388e-19
7.95351e-19
-7.02016e-19
8.72911e-19
-6.83881e-19
9.40055e-19
-6.63005e-19
9.96729e-19
-6.39594e-19
1.04295e-18
-6.13672e-19
1.07891e-18
-5.85427e-19
1.10487e-18
-5.54957e-19
1.12123e-18
-5.22527e-19
1.12841e-18
-4.8809e-19
1.12685e-18
-4.51924e-19
1.11687e-18
-4.14263e-19
1.0988e-18
-3.75437e-19
1.07292e-18
-3.35495e-19
1.0395e-18
-2.94527e-19
9.98607e-19
-2.52794e-19
9.5019e-19
-2.10762e-19
8.94439e-19
-1.69194e-19
8.30217e-19
-1.29651e-19
7.56076e-19
-9.12852e-20
6.76631e-19
-5.96234e-20
5.86196e-19
-4.01777e-20
4.74645e-19
-1.23141e-20
3.65224e-19
-1.22561e-21
2.30121e-19
8.61335e-20
-7.71535e-21
-1.62005e-19
-2.3164e-20
-4.44141e-19
-4.98557e-20
-6.92091e-19
-8.54982e-20
-9.02744e-19
-1.29111e-19
-1.07896e-18
-1.78583e-19
-1.22162e-18
-2.32037e-19
-1.33196e-18
-2.88062e-19
-1.41182e-18
-3.45615e-19
-1.4628e-18
-4.03811e-19
-1.4867e-18
-4.6184e-19
-1.48545e-18
-5.18909e-19
-1.46104e-18
-5.74492e-19
-1.41561e-18
-6.27966e-19
-1.35125e-18
-6.78821e-19
-1.27002e-18
-7.2665e-19
-1.17408e-18
-7.71133e-19
-1.06558e-18
-8.11918e-19
-9.46641e-19
-8.48777e-19
-8.19394e-19
-8.81443e-19
-6.85899e-19
-9.09775e-19
-5.4811e-19
-9.33582e-19
-4.07979e-19
-9.52879e-19
-2.67458e-19
-9.67557e-19
-1.2842e-19
-9.77646e-19
7.49593e-21
-9.8315e-19
1.38841e-19
-9.84119e-19
2.64492e-19
-9.8056e-19
3.83417e-19
-9.72641e-19
4.94768e-19
-9.60435e-19
5.97629e-19
-9.44227e-19
6.91381e-19
-9.24156e-19
7.75429e-19
-9.00468e-19
8.49455e-19
-8.73199e-19
9.13162e-19
-8.42658e-19
9.66576e-19
-8.08914e-19
1.00966e-18
-7.72327e-19
1.04281e-18
-7.33021e-19
1.06615e-18
-6.9133e-19
1.08015e-18
-6.47435e-19
1.08516e-18
-6.01583e-19
1.08169e-18
-5.5405e-19
1.07004e-18
-5.05243e-19
1.05067e-18
-4.55448e-19
1.02376e-18
-4.0492e-19
9.89716e-19
-3.53829e-19
9.48643e-19
-3.0226e-19
9.00626e-19
-2.51185e-19
8.44895e-19
-2.01778e-19
7.82266e-19
-1.53373e-19
7.13644e-19
-1.1018e-19
6.31797e-19
-7.27151e-20
5.41124e-19
-3.69478e-20
4.52196e-19
-2.71388e-20
3.35202e-19
-1.18677e-20
2.16416e-19
7.42822e-20
-6.93243e-21
-1.53961e-19
-2.7353e-20
-4.21001e-19
-5.90892e-20
-6.56863e-19
-1.02573e-19
-8.57566e-19
-1.55353e-19
-1.02562e-18
-2.15218e-19
-1.16185e-18
-2.80329e-19
-1.2672e-18
-3.49046e-19
-1.34352e-18
-4.19944e-19
-1.3923e-18
-4.91857e-19
-1.41521e-18
-5.63732e-19
-1.41405e-18
-6.34596e-19
-1.39069e-18
-7.03652e-19
-1.34715e-18
-7.70086e-19
-1.28538e-18
-8.33202e-19
-1.20747e-18
-8.92429e-19
-1.11538e-18
-9.47295e-19
-1.01124e-18
-9.97362e-19
-8.97076e-19
-1.04233e-18
-7.75006e-19
-1.08184e-18
-6.46914e-19
-1.11572e-18
-5.14878e-19
-1.14371e-18
-3.80653e-19
-1.16592e-18
-2.46158e-19
-1.18221e-18
-1.12973e-19
-1.19268e-18
1.70985e-20
-1.19711e-18
1.42853e-19
-1.1957e-18
2.62879e-19
-1.18844e-18
3.76404e-19
-1.17581e-18
4.82383e-19
-1.15801e-18
5.80247e-19
-1.13544e-18
6.69088e-19
-1.10809e-18
7.48598e-19
-1.07639e-18
8.1819e-19
-1.04042e-18
8.77857e-19
-1.00071e-18
9.27404e-19
-9.57384e-19
9.6712e-19
-9.1093e-19
9.96998e-19
-8.61421e-19
1.01752e-18
-8.09455e-19
1.02889e-18
-7.55138e-19
1.03177e-18
-6.99037e-19
1.02634e-18
-6.41286e-19
1.01326e-18
-5.82597e-19
9.9269e-19
-5.23107e-19
9.65148e-19
-4.63342e-19
9.30793e-19
-4.03291e-19
8.89943e-19
-3.43748e-19
8.424e-19
-2.84895e-19
7.88908e-19
-2.27689e-19
7.28088e-19
-1.74224e-19
6.58076e-19
-1.23239e-19
5.8592e-19
-8.02626e-20
5.05225e-19
-5.4014e-20
4.02652e-19
-1.60347e-20
3.09869e-19
-9.45732e-22
1.92645e-19
7.28631e-20
-9.43842e-21
-1.43509e-19
-3.1064e-20
-3.94196e-19
-6.82782e-20
-6.17107e-19
-1.17828e-19
-8.05957e-19
-1.78737e-19
-9.63768e-19
-2.48277e-19
-1.09228e-18
-3.24109e-19
-1.19162e-18
-4.04351e-19
-1.26355e-18
-4.87363e-19
-1.30954e-18
-5.7175e-19
-1.33114e-18
-6.5619e-19
-1.32992e-18
-7.39595e-19
-1.30771e-18
-8.20821e-19
-1.26635e-18
-8.98976e-19
-1.20773e-18
-9.73114e-19
-1.13373e-18
-1.04259e-18
-1.0463e-18
-1.10669e-18
-9.47434e-19
-1.16509e-18
-8.39137e-19
-1.21713e-18
-7.23304e-19
-1.26267e-18
-6.01875e-19
-1.3012e-18
-4.76687e-19
-1.33292e-18
-3.49601e-19
-1.35733e-18
-2.22334e-19
-1.37471e-18
-9.64736e-20
-1.38467e-18
2.64925e-20
-1.38771e-18
1.45316e-19
-1.38354e-18
2.58779e-19
-1.37293e-18
3.6589e-19
-1.35565e-18
4.65619e-19
-1.3325e-18
5.57388e-19
-1.30331e-18
6.40521e-19
-1.26904e-18
7.14659e-19
-1.2295e-18
7.79313e-19
-1.18562e-18
8.34398e-19
-1.13716e-18
8.7975e-19
-1.08514e-18
9.15612e-19
-1.02932e-18
9.42028e-19
-9.70749e-19
9.595e-19
-9.09254e-19
9.68257e-19
-8.45828e-19
9.68876e-19
-7.80326e-19
9.61678e-19
-7.13805e-19
9.47211e-19
-6.46187e-19
9.25798e-19
-5.7849e-19
8.97885e-19
-5.10611e-19
8.63693e-19
-4.43377e-19
8.23596e-19
-3.76498e-19
7.77637e-19
-3.11582e-19
7.25146e-19
-2.49462e-19
6.67044e-19
-1.89437e-19
6.05286e-19
-1.36312e-19
5.30491e-19
-8.98517e-20
4.48774e-19
-4.49367e-20
3.75736e-19
-3.28449e-20
2.73564e-19
-1.55899e-20
1.75964e-19
5.7243e-20
-8.73784e-21
-1.32854e-19
-3.42741e-20
-3.65684e-19
-7.53062e-20
-5.71783e-19
-1.31414e-19
-7.47277e-19
-2.00181e-19
-8.93832e-19
-2.78427e-19
-1.01342e-18
-3.63913e-19
-1.10577e-18
-4.54534e-19
-1.17255e-18
-5.48565e-19
-1.21525e-18
-6.4417e-19
-1.23519e-18
-7.40056e-19
-1.23387e-18
-8.34647e-19
-1.21297e-18
-9.2694e-19
-1.17411e-18
-1.01545e-18
-1.11908e-18
-1.09953e-18
-1.04953e-18
-1.17795e-18
-9.67575e-19
-1.25048e-18
-8.74852e-19
-1.31591e-18
-7.73422e-19
-1.37432e-18
-6.64832e-19
-1.42468e-18
-5.51221e-19
-1.46737e-18
-4.34006e-19
-1.50154e-18
-3.15283e-19
-1.5278e-18
-1.96208e-19
-1.54546e-18
-7.8821e-20
-1.55517e-18
3.60358e-20
-1.55622e-18
1.46535e-19
-1.54952e-18
2.52186e-19
-1.53461e-18
3.51366e-19
-1.51274e-18
4.43987e-19
-1.48363e-18
5.28652e-19
-1.44857e-18
6.05547e-19
-1.40725e-18
6.73453e-19
-1.3608e-18
7.3285e-19
-1.30892e-18
7.8269e-19
-1.25284e-18
8.23696e-19
-1.19228e-18
8.55179e-19
-1.12845e-18
8.7819e-19
-1.06112e-18
8.92256e-19
-9.91494e-19
8.98525e-19
-9.19418e-19
8.96705e-19
-8.46125e-19
8.88015e-19
-7.71489e-19
8.72238e-19
-6.96646e-19
8.50503e-19
-6.21601e-19
8.22532e-19
-5.47255e-19
7.89265e-19
-4.73547e-19
7.50285e-19
-4.01674e-19
7.06088e-19
-3.31624e-19
6.57118e-19
-2.64155e-19
6.02644e-19
-2.02458e-19
5.39064e-19
-1.43386e-19
4.76939e-19
-9.31945e-20
4.09426e-19
-6.30436e-20
3.17559e-19
-1.75449e-20
2.42735e-19
-7.53593e-22
1.49343e-19
5.59485e-20
-1.04377e-20
-1.21452e-19
-3.68438e-20
-3.34435e-19
-8.28508e-20
-5.22482e-19
-1.44324e-19
-6.84041e-19
-2.19682e-19
-8.17763e-19
-3.06022e-19
-9.27094e-19
-4.0033e-19
-1.01176e-18
-5.00438e-19
-1.07281e-18
-6.04285e-19
-1.11174e-18
-7.10122e-19
-1.12983e-18
-8.16127e-19
-1.12846e-18
-9.20858e-19
-1.10889e-18
-1.02285e-18
-1.07285e-18
-1.1208e-18
-1.02183e-18
-1.21353e-18
-9.57624e-19
-1.30003e-18
-8.8177e-19
-1.3796e-18
-7.96145e-19
-1.45142e-18
-7.02294e-19
-1.51499e-18
-6.022e-19
-1.56963e-18
-4.97148e-19
-1.6154e-18
-3.89229e-19
-1.65163e-18
-2.79493e-19
-1.67884e-18
-1.70082e-19
-1.69626e-18
-6.17887e-20
-1.70474e-18
4.34669e-20
-1.70346e-18
1.45105e-19
-1.69364e-18
2.41536e-19
-1.67455e-18
3.32548e-19
-1.64794e-18
4.16734e-19
-1.61313e-18
4.94264e-19
-1.57212e-18
5.63909e-19
-1.52404e-18
6.25979e-19
-1.47092e-18
6.79273e-19
-1.41168e-18
7.24208e-19
-1.34838e-18
7.6011e-19
-1.28003e-18
7.87725e-19
-1.20878e-18
8.06758e-19
-1.13363e-18
8.17989e-19
-1.05666e-18
8.21433e-19
-9.77014e-19
8.17873e-19
-8.96782e-19
8.0761e-19
-8.15146e-19
7.91474e-19
-7.34143e-19
7.69597e-19
-6.52961e-19
7.42548e-19
-5.73386e-19
7.10386e-19
-4.94732e-19
6.73551e-19
-4.18451e-19
6.32234e-19
-3.44522e-19
5.85494e-19
-2.75997e-19
5.34238e-19
-2.09261e-19
4.82508e-19
-1.51123e-19
4.1868e-19
-1.01073e-19
3.45933e-19
-4.88622e-20
2.9094e-19
-3.58243e-20
2.05773e-19
-1.74448e-20
1.3322e-19
3.86261e-20
-1.04183e-20
-1.09943e-19
-3.92143e-20
-3.02052e-19
-8.91669e-20
-4.71851e-19
-1.56281e-19
-6.1722e-19
-2.38167e-19
-7.38073e-19
-3.31976e-19
-8.36683e-19
-4.34135e-19
-9.12838e-19
-5.42926e-19
-9.67687e-19
-6.55517e-19
-1.0025e-18
-7.70705e-19
-1.01862e-18
-8.85549e-19
-1.01696e-18
-9.9967e-19
-9.99213e-19
-1.10975e-18
-9.6636e-19
-1.21644e-18
-9.20128e-19
-1.31615e-18
-8.61538e-19
-1.4106e-18
-7.92834e-19
-1.49546e-18
-7.1491e-19
-1.5736e-18
-6.29935e-19
-1.6403e-18
-5.38682e-19
-1.69967e-18
-4.43625e-19
-1.7463e-18
-3.45267e-19
-1.78547e-18
-2.46156e-19
-1.81122e-18
-1.46467e-19
-1.82977e-18
-4.87499e-20
-1.83461e-18
4.70274e-20
-1.83272e-18
1.38517e-19
-1.81718e-18
2.2619e-19
-1.79601e-18
3.07807e-19
-1.76196e-18
3.84328e-19
-1.72383e-18
4.5378e-19
-1.6742e-18
5.17241e-19
-1.62218e-18
5.72655e-19
-1.55993e-18
6.21032e-19
-1.49653e-18
6.60385e-19
-1.42387e-18
6.92174e-19
-1.35109e-18
7.15169e-19
-1.2704e-18
7.31214e-19
-1.19078e-18
7.39476e-19
-1.1048e-18
7.41225e-19
-1.02091e-18
7.35903e-19
-9.32139e-19
7.25241e-19
-8.4658e-19
7.08907e-19
-7.58065e-19
6.88123e-19
-6.738e-19
6.62459e-19
-5.88299e-19
6.32636e-19
-5.07486e-19
5.98125e-19
-4.27084e-19
5.59257e-19
-3.52459e-19
5.16986e-19
-2.78735e-19
4.71489e-19
-2.1381e-19
4.17333e-19
-1.5329e-19
3.64367e-19
-9.87411e-20
3.14318e-19
-6.75209e-20
2.35855e-19
-1.82369e-20
1.78536e-19
1.99075e-21
1.08641e-19
4.05024e-20
-9.52769e-21
-9.88938e-20
-4.26424e-20
-2.69809e-19
-9.52525e-20
-4.20168e-19
-1.68022e-19
-5.48249e-19
-2.55829e-19
-6.551e-19
-3.56153e-19
-7.4062e-19
-4.66203e-19
-8.07548e-19
-5.82366e-19
-8.55406e-19
-7.03614e-19
-8.85735e-19
-8.2637e-19
-8.99328e-19
-9.50241e-19
-8.97931e-19
-1.07129e-18
-8.81626e-19
-1.19026e-18
-8.52699e-19
-1.30291e-18
-8.11149e-19
-1.41097e-18