/*--------------------------------*- C++ -*----------------------------------*\
| =========                 |                                                 |
| \\      /  F ield         | OpenFOAM: The Open Source CFD Toolbox           |
|  \\    /   O peration     | Version:  5.0                                   |
|   \\  /    A nd           | Web:      www.OpenFOAM.org                      |
|    \\/     M anipulation  |                                                 |
\*---------------------------------------------------------------------------*/
FoamFile
{
    version     2.0;
    format      ascii;
    class       volScalarField;
    location    "136";
    object      p;
}
// * * * * * * * * * * * * * * * * * * * * * * * * * * * * * * * * * * * * * //

dimensions      [0 2 -2 0 0 0 0];

internalField   nonuniform List<scalar> 
1568
(
1.83577e-12
8.42808e-13
3.02297e-12
1.58161e-13
1.67518e-12
4.05928e-12
3.91262e-12
3.95956e-12
4.49517e-12
4.88917e-12
5.16088e-12
5.53837e-12
5.96794e-12
6.3688e-12
6.72493e-12
7.09912e-12
7.44832e-12
7.84094e-12
8.20184e-12
8.57724e-12
8.89361e-12
9.33615e-12
9.79916e-12
1.04131e-11
1.10158e-11
1.17086e-11
1.22055e-11
1.26669e-11
1.28829e-11
1.31825e-11
1.34266e-11
1.38699e-11
1.41946e-11
1.46074e-11
1.48563e-11
1.51909e-11
1.53633e-11
1.56489e-11
1.58107e-11
1.60209e-11
1.61316e-11
1.63257e-11
1.64329e-11
1.66279e-11
1.67729e-11
1.69576e-11
1.70906e-11
1.72493e-11
1.73808e-11
1.75979e-11
1.77045e-11
1.79604e-11
1.86783e-11
1.83712e-11
1.92936e-11
1.94437e-11
1.38635e-12
-4.65374e-11
2.84318e-11
1.36483e-11
-6.54995e-12
7.24029e-12
7.88451e-12
5.16e-12
6.18212e-12
7.53447e-12
7.61558e-12
7.64175e-12
7.82521e-12
8.13901e-12
8.63404e-12
9.19405e-12
9.56559e-12
1.02672e-11
1.06801e-11
1.11694e-11
1.12451e-11
1.17212e-11
1.15182e-11
1.16743e-11
1.14544e-11
1.21619e-11
1.21009e-11
1.27386e-11
1.23374e-11
1.33174e-11
1.30504e-11
1.33714e-11
1.25649e-11
1.30127e-11
1.26156e-11
1.34124e-11
1.29514e-11
1.35784e-11
1.33114e-11
1.37349e-11
1.36682e-11
1.43924e-11
1.42211e-11
1.44512e-11
1.42487e-11
1.45587e-11
1.45643e-11
1.49214e-11
1.50598e-11
1.57162e-11
1.57923e-11
1.61338e-11
1.77706e-11
1.2087e-11
2.06827e-11
1.91145e-11
5.07093e-12
9.0195e-12
-1.5744e-12
-8.21802e-14
-5.27623e-12
3.55262e-12
3.58384e-12
2.0668e-12
2.40413e-12
2.15479e-12
3.38604e-12
4.31005e-12
4.34305e-12
4.71072e-12
5.21512e-12
5.24447e-12
5.63381e-12
5.96139e-12
6.46891e-12
6.81027e-12
7.43347e-12
8.06783e-12
9.02142e-12
9.55295e-12
1.0423e-11
1.07625e-11
1.12806e-11
1.16657e-11
1.24093e-11
1.26886e-11
1.33961e-11
1.44553e-11
1.62039e-11
1.68276e-11
1.72628e-11
1.73555e-11
1.79446e-11
1.7883e-11
1.81864e-11
1.82967e-11
1.8053e-11
1.74507e-11
1.78496e-11
1.80233e-11
1.84373e-11
1.85813e-11
1.88174e-11
1.91321e-11
1.91444e-11
1.85871e-11
1.91342e-11
1.80147e-11
2.14199e-11
1.94362e-11
1.80384e-11
1.8382e-11
3.65396e-12
1.29116e-11
1.19676e-11
-7.12406e-14
4.27228e-12
9.96102e-12
7.22714e-12
6.4065e-12
8.37292e-12
9.05957e-12
8.72865e-12
8.59294e-12
8.95854e-12
9.65545e-12
9.75835e-12
1.01365e-11
1.04206e-11
1.05799e-11
1.05925e-11
1.10425e-11
1.11488e-11
1.13475e-11
1.13072e-11
1.15627e-11
1.16437e-11
1.20449e-11
1.21296e-11
1.25094e-11
1.25765e-11
1.27834e-11
1.25322e-11
1.21808e-11
1.16662e-11
1.14464e-11
1.14891e-11
1.17304e-11
1.18691e-11
1.21724e-11
1.22532e-11
1.28056e-11
1.32607e-11
1.38717e-11
1.41088e-11
1.43529e-11
1.44125e-11
1.45081e-11
1.44744e-11
1.48198e-11
1.52277e-11
1.54551e-11
1.57702e-11
1.61405e-11
1.7657e-11
1.35564e-11
2.00486e-11
1.82689e-11
2.94742e-12
-3.01329e-12
6.5654e-13
4.18546e-13
6.88575e-12
8.1669e-12
5.71586e-12
5.96296e-12
7.25308e-12
7.90638e-12
7.88817e-12
8.00281e-12
8.26957e-12
8.54268e-12
8.72203e-12
9.085e-12
9.50345e-12
9.93052e-12
1.02836e-11
1.05819e-11
1.07839e-11
1.09418e-11
1.11389e-11
1.1383e-11
1.15816e-11
1.18555e-11
1.21006e-11
1.21535e-11
1.2256e-11
1.24284e-11
1.26388e-11
1.27087e-11
1.2746e-11
1.27539e-11
1.3108e-11
1.33213e-11
1.34121e-11
1.3534e-11
1.36754e-11
1.3803e-11
1.39162e-11
1.40191e-11
1.40854e-11
1.41642e-11
1.4298e-11
1.4409e-11
1.46028e-11
1.49767e-11
1.4998e-11
1.53657e-11
1.62101e-11
1.40178e-11
1.66243e-11
1.91148e-11
1.55953e-11
1.74198e-11
4.58968e-12
3.00697e-12
4.43057e-12
6.18448e-12
6.97176e-12
4.70121e-12
4.37789e-12
5.77675e-12
6.05348e-12
6.04786e-12
6.32509e-12
6.79455e-12
7.17764e-12
7.56447e-12
7.90218e-12
8.1196e-12
8.33548e-12
8.61992e-12
8.93926e-12
9.18855e-12
9.4715e-12
9.87884e-12
1.02491e-11
1.05846e-11
1.08658e-11
1.11572e-11
1.15014e-11
1.18575e-11
1.21852e-11
1.25823e-11
1.29444e-11
1.337e-11
1.38664e-11
1.4253e-11
1.44745e-11
1.46592e-11
1.48164e-11
1.50368e-11
1.5199e-11
1.53373e-11
1.54186e-11
1.55316e-11
1.56464e-11
1.57398e-11
1.59196e-11
1.60614e-11
1.61504e-11
1.64663e-11
1.65603e-11
1.6331e-11
1.69309e-11
1.72029e-11
1.7377e-11
1.31428e-11
1.82519e-11
1.73196e-11
5.13178e-12
7.55718e-12
6.93379e-12
6.76945e-12
6.51278e-12
5.4172e-12
6.03842e-12
7.31836e-12
7.56474e-12
7.3818e-12
7.65221e-12
8.02729e-12
8.26197e-12
8.46827e-12
8.70007e-12
8.95328e-12
9.1982e-12
9.39959e-12
9.63413e-12
9.90017e-12
1.01876e-11
1.04412e-11
1.06906e-11
1.09382e-11
1.12181e-11
1.14686e-11
1.17451e-11
1.19961e-11
1.22715e-11
1.24835e-11
1.25975e-11
1.27257e-11
1.2993e-11
1.31921e-11
1.3304e-11
1.34198e-11
1.36765e-11
1.38753e-11
1.40487e-11
1.42434e-11
1.44703e-11
1.46558e-11
1.48503e-11
1.50645e-11
1.52838e-11
1.53591e-11
1.54755e-11
1.58379e-11
1.565e-11
1.55668e-11
1.68493e-11
1.52228e-11
1.64029e-11
1.85754e-11
1.66057e-11
1.65304e-11
5.35792e-12
7.04356e-12
5.52039e-12
5.36292e-12
6.76296e-12
6.83996e-12
7.18895e-12
7.79043e-12
8.03128e-12
7.90462e-12
8.23138e-12
8.56545e-12
8.77373e-12
8.95015e-12
9.14492e-12
9.40073e-12
9.65276e-12
9.87446e-12
1.00914e-11
1.03243e-11
1.05361e-11
1.07576e-11
1.0941e-11
1.11522e-11
1.13657e-11
1.15895e-11
1.17643e-11
1.1952e-11
1.21495e-11
1.2314e-11
1.24855e-11
1.26533e-11
1.2715e-11
1.28185e-11
1.30059e-11
1.31899e-11
1.33448e-11
1.35033e-11
1.36317e-11
1.38031e-11
1.3953e-11
1.40593e-11
1.41792e-11
1.43534e-11
1.44661e-11
1.44843e-11
1.45991e-11
1.49993e-11
1.50333e-11
1.49007e-11
1.55198e-11
1.54069e-11
1.61804e-11
1.32139e-11
1.67036e-11
1.61779e-11
5.98771e-12
6.79782e-12
5.79056e-12
6.07888e-12
7.79534e-12
7.35407e-12
7.39704e-12
7.80708e-12
7.95661e-12
8.08001e-12
8.35767e-12
8.46519e-12
8.69476e-12
8.95611e-12
9.15047e-12
9.36396e-12
9.5718e-12
9.78561e-12
1.00143e-11
1.02174e-11
1.04115e-11
1.06688e-11
1.08735e-11
1.10702e-11
1.12798e-11
1.14811e-11
1.16873e-11
1.18902e-11
1.20933e-11
1.22675e-11
1.25061e-11
1.27253e-11
1.29028e-11
1.30653e-11
1.32713e-11
1.34387e-11
1.35767e-11
1.36952e-11
1.38307e-11
1.39714e-11
1.41032e-11
1.42034e-11
1.43075e-11
1.44222e-11
1.45205e-11
1.45765e-11
1.47332e-11
1.50425e-11
1.49219e-11
1.48534e-11
1.57549e-11
1.44238e-11
1.54076e-11
1.61949e-11
1.52383e-11
1.56032e-11
6.89049e-12
8.20654e-12
6.79761e-12
7.12834e-12
8.64162e-12
7.66237e-12
7.70395e-12
8.23212e-12
8.19989e-12
8.30709e-12
8.61126e-12
8.79575e-12
8.9664e-12
9.13378e-12
9.28078e-12
9.49955e-12
9.68509e-12
9.8597e-12
1.0049e-11
1.02997e-11
1.04619e-11
1.06173e-11
1.08159e-11
1.10327e-11
1.12148e-11
1.14198e-11
1.16542e-11
1.18881e-11
1.20843e-11
1.22919e-11
1.24641e-11
1.26455e-11
1.28124e-11
1.30045e-11
1.31754e-11
1.33161e-11
1.34705e-11
1.36329e-11
1.37745e-11
1.39109e-11
1.4038e-11
1.41558e-11
1.42552e-11
1.44129e-11
1.45518e-11
1.45899e-11
1.46808e-11
1.49918e-11
1.49195e-11
1.47794e-11
1.54327e-11
1.46455e-11
1.5801e-11
1.42232e-11
1.5298e-11
1.52463e-11
7.65089e-12
9.11371e-12
7.37385e-12
7.86547e-12
9.21527e-12
8.06871e-12
8.08022e-12
8.7104e-12
8.79223e-12
8.7818e-12
8.90613e-12
9.19674e-12
9.32395e-12
9.40435e-12
9.56797e-12
9.7542e-12
9.92929e-12
1.00927e-11
1.02581e-11
1.04013e-11
1.06019e-11
1.07622e-11
1.09603e-11
1.11116e-11
1.12994e-11
1.14749e-11
1.16803e-11
1.1854e-11
1.20468e-11
1.22254e-11
1.23644e-11
1.25178e-11
1.26818e-11
1.28356e-11
1.29865e-11
1.31217e-11
1.32656e-11
1.34048e-11
1.354e-11
1.36697e-11
1.38e-11
1.39034e-11
1.40013e-11
1.41496e-11
1.42846e-11
1.42759e-11
1.43809e-11
1.47004e-11
1.45578e-11
1.43909e-11
1.52535e-11
1.43173e-11
1.47215e-11
1.46739e-11
1.49974e-11
1.47746e-11
8.37743e-12
9.88622e-12
7.92939e-12
8.28103e-12
9.62528e-12
8.57915e-12
8.59048e-12
9.16132e-12
9.20745e-12
9.18773e-12
9.29832e-12
9.46143e-12
9.52958e-12
9.65773e-12
9.87907e-12
9.96336e-12
1.00664e-11
1.02292e-11
1.04112e-11
1.05042e-11
1.06941e-11
1.08948e-11
1.1077e-11
1.12419e-11
1.14668e-11
1.16329e-11
1.1725e-11
1.1773e-11
1.18917e-11
1.2063e-11
1.22536e-11
1.24398e-11
1.25917e-11
1.2733e-11
1.28664e-11
1.30231e-11
1.31553e-11
1.32814e-11
1.33968e-11
1.35165e-11
1.36273e-11
1.37405e-11
1.38328e-11
1.39555e-11
1.40712e-11
1.40387e-11
1.41121e-11
1.44236e-11
1.42539e-11
1.41345e-11
1.48063e-11
1.37132e-11
1.48751e-11
1.44922e-11
1.37965e-11
1.42633e-11
9.07154e-12
1.03472e-11
8.59083e-12
8.84619e-12
1.00498e-11
9.08839e-12
9.06897e-12
9.55653e-12
9.5194e-12
9.47211e-12
9.60157e-12
9.72892e-12
9.81239e-12
9.90886e-12
1.00403e-11
1.0135e-11
1.02577e-11
1.04075e-11
1.05483e-11
1.06756e-11
1.07903e-11
1.09213e-11
1.09758e-11
1.10189e-11
1.11316e-11
1.13567e-11
1.16361e-11
1.19468e-11
1.21852e-11
1.22722e-11
1.23246e-11
1.24229e-11
1.25494e-11
1.27055e-11
1.28404e-11
1.29212e-11
1.30682e-11
1.31992e-11
1.33076e-11
1.34202e-11
1.35262e-11
1.36079e-11
1.36776e-11
1.37703e-11
1.39001e-11
1.38963e-11
1.39323e-11
1.42375e-11
1.41042e-11
1.3796e-11
1.46252e-11
1.40688e-11
1.39678e-11
1.28521e-11
1.47037e-11
1.39494e-11
9.77827e-12
1.09614e-11
9.16613e-12
9.44251e-12
1.05467e-11
9.57043e-12
9.48044e-12
9.91834e-12
9.86021e-12
9.76005e-12
9.84455e-12
9.9484e-12
1.00389e-11
1.00918e-11
1.0137e-11
1.02609e-11
1.04043e-11
1.04938e-11
1.05871e-11
1.07324e-11
1.08653e-11
1.10231e-11
1.12124e-11
1.14599e-11
1.16137e-11
1.16998e-11
1.16715e-11
1.16527e-11
1.17554e-11
1.19691e-11
1.21659e-11
1.23433e-11
1.24672e-11
1.25935e-11
1.27583e-11
1.28638e-11
1.30053e-11
1.31069e-11
1.32042e-11
1.33311e-11
1.34371e-11
1.35129e-11
1.3594e-11
1.36766e-11
1.37618e-11
1.37612e-11
1.37933e-11
1.40491e-11
1.38865e-11
1.37793e-11
1.43232e-11
1.28714e-11
1.45515e-11
1.4473e-11
1.29469e-11
1.33987e-11
1.03915e-11
1.14774e-11
9.72539e-12
9.96057e-12
1.10478e-11
1.00168e-11
9.87755e-12
1.02958e-11
1.0223e-11
1.00912e-11
1.01528e-11
1.02394e-11
1.02778e-11
1.03232e-11
1.03849e-11
1.04739e-11
1.05453e-11
1.06047e-11
1.07091e-11
1.08371e-11
1.0946e-11
1.10609e-11
1.12359e-11
1.14461e-11
1.15714e-11
1.16313e-11
1.16746e-11
1.16732e-11
1.17454e-11
1.19492e-11
1.21325e-11
1.22865e-11
1.24214e-11
1.25215e-11
1.2644e-11
1.2807e-11
1.29003e-11
1.29911e-11
1.30991e-11
1.31996e-11
1.32916e-11
1.33641e-11
1.34503e-11
1.35573e-11
1.36367e-11
1.35876e-11
1.36058e-11
1.38816e-11
1.37667e-11
1.33502e-11
1.39421e-11
1.3913e-11
1.37687e-11
1.08337e-11
1.44775e-11
1.32165e-11
1.10319e-11
1.25061e-11
1.02956e-11
1.03696e-11
1.15366e-11
1.04334e-11
1.02698e-11
1.06596e-11
1.05533e-11
1.04072e-11
1.04613e-11
1.05208e-11
1.05232e-11
1.0549e-11
1.0622e-11
1.0682e-11
1.07349e-11
1.08154e-11
1.09012e-11
1.09564e-11
1.10338e-11
1.11268e-11
1.11322e-11
1.1099e-11
1.11377e-11
1.12971e-11
1.16341e-11
1.19551e-11
1.21569e-11
1.22015e-11
1.21865e-11
1.22441e-11
1.239e-11
1.25044e-11
1.2583e-11
1.26987e-11
1.2779e-11
1.28885e-11
1.30049e-11
1.30808e-11
1.31678e-11
1.32291e-11
1.32642e-11
1.33547e-11
1.34456e-11
1.33971e-11
1.34117e-11
1.36674e-11
1.35171e-11
1.33935e-11
1.3798e-11
1.2313e-11
1.42281e-11
1.4152e-11
1.25111e-11
1.26739e-11
1.15686e-11
1.26045e-11
1.06307e-11
1.08414e-11
1.20131e-11
1.08072e-11
1.06422e-11
1.10263e-11
1.08873e-11
1.07134e-11
1.07185e-11
1.07502e-11
1.07396e-11
1.07441e-11
1.07622e-11
1.07971e-11
1.08417e-11
1.09054e-11
1.09611e-11
1.1028e-11
1.11005e-11
1.12036e-11
1.1312e-11
1.14689e-11
1.15936e-11
1.16745e-11
1.16961e-11
1.17065e-11
1.1773e-11
1.19014e-11
1.20252e-11
1.21789e-11
1.2288e-11
1.23955e-11
1.249e-11
1.2614e-11
1.27025e-11
1.28013e-11
1.28804e-11
1.29805e-11
1.30619e-11
1.31336e-11
1.31651e-11
1.32489e-11
1.33205e-11
1.3273e-11
1.32614e-11
1.35411e-11
1.34043e-11
1.28913e-11
1.35061e-11
1.37562e-11
1.30282e-11
9.75233e-12
1.44682e-11
1.26289e-11
1.21629e-11
1.35027e-11
1.13518e-11
1.12733e-11
1.2461e-11
1.11948e-11
1.09895e-11
1.1349e-11
1.11851e-11
1.09817e-11
1.0978e-11
1.09886e-11
1.09598e-11
1.09321e-11
1.0943e-11
1.09669e-11
1.09956e-11
1.10186e-11
1.1071e-11
1.11239e-11
1.11901e-11
1.12345e-11
1.13124e-11
1.13872e-11
1.14876e-11
1.15643e-11
1.16627e-11
1.17197e-11
1.18331e-11
1.19285e-11
1.20526e-11
1.21442e-11
1.22561e-11
1.23286e-11
1.2448e-11
1.25315e-11
1.26413e-11
1.27152e-11
1.28142e-11
1.2878e-11
1.2963e-11
1.30097e-11
1.3073e-11
1.31425e-11
1.32194e-11
1.31519e-11
1.31596e-11
1.33761e-11
1.31885e-11
1.3089e-11
1.35432e-11
1.1784e-11
1.38583e-11
1.42839e-11
1.15659e-11
1.21099e-11
1.27051e-11
1.35751e-11
1.18077e-11
1.15666e-11
1.28501e-11
1.15522e-11
1.12928e-11
1.16267e-11
1.14415e-11
1.12245e-11
1.11909e-11
1.11769e-11
1.11206e-11
1.10898e-11
1.10818e-11
1.10999e-11
1.1095e-11
1.11194e-11
1.1136e-11
1.1178e-11
1.12055e-11
1.12657e-11
1.1306e-11
1.1363e-11
1.14156e-11
1.15124e-11
1.16026e-11
1.17247e-11
1.18262e-11
1.19424e-11
1.20183e-11
1.21214e-11
1.22209e-11
1.23225e-11
1.24145e-11
1.25115e-11
1.25948e-11
1.26818e-11
1.27606e-11
1.28422e-11
1.29155e-11
1.29723e-11
1.3007e-11
1.30671e-11
1.31382e-11
1.30549e-11
1.30256e-11
1.32727e-11
1.31609e-11
1.25893e-11
1.31731e-11
1.35319e-11
1.26665e-11
8.77477e-12
1.41496e-11
1.22361e-11
1.32209e-11
1.40728e-11
1.26207e-11
1.18742e-11
1.32035e-11
1.19588e-11
1.16518e-11
1.19532e-11
1.17558e-11
1.15012e-11
1.14269e-11
1.13998e-11
1.13361e-11
1.12996e-11
1.12523e-11
1.12302e-11
1.12118e-11
1.12388e-11
1.1228e-11
1.12695e-11
1.12708e-11
1.13549e-11
1.13409e-11
1.14321e-11
1.1436e-11
1.15701e-11
1.15929e-11
1.17424e-11
1.1744e-11
1.18916e-11
1.18901e-11
1.20518e-11
1.20596e-11
1.22328e-11
1.22431e-11
1.24164e-11
1.24029e-11
1.25681e-11
1.25619e-11
1.27172e-11
1.26959e-11
1.28099e-11
1.27576e-11
1.29306e-11
1.2951e-11
1.29459e-11
1.28757e-11
1.31777e-11
1.28956e-11
1.29069e-11
1.32449e-11
1.11296e-11
1.38289e-11
1.48557e-11
1.11873e-11
1.17284e-11
1.36783e-11
1.41269e-11
1.32095e-11
1.21929e-11
1.37405e-11
1.25027e-11
1.21218e-11
1.23619e-11
1.21841e-11
1.19129e-11
1.18662e-11
1.1759e-11
1.1719e-11
1.15689e-11
1.16415e-11
1.15275e-11
1.16197e-11
1.14505e-11
1.15958e-11
1.14469e-11
1.16179e-11
1.14543e-11
1.16638e-11
1.15168e-11
1.1747e-11
1.15559e-11
1.18079e-11
1.15844e-11
1.18555e-11
1.16714e-11
1.19554e-11
1.17404e-11
1.20386e-11
1.18558e-11
1.22022e-11
1.20232e-11
1.2354e-11
1.21652e-11
1.24865e-11
1.22957e-11
1.25956e-11
1.24028e-11
1.26319e-11
1.25306e-11
1.27756e-11
1.25167e-11
1.26871e-11
1.28048e-11
1.28213e-11
1.2052e-11
1.2698e-11
1.39126e-11
1.27339e-11
6.86528e-12
1.46004e-11
1.20136e-11
1.40702e-11
1.42474e-11
1.37705e-11
1.19047e-11
1.33734e-11
1.23216e-11
1.19144e-11
1.21598e-11
1.19351e-11
1.17156e-11
1.15864e-11
1.15638e-11
1.14619e-11
1.13714e-11
1.12208e-11
1.11395e-11
1.11009e-11
1.11127e-11
1.10711e-11
1.10719e-11
1.10563e-11
1.10863e-11
1.11307e-11
1.11427e-11
1.1241e-11
1.12743e-11
1.14403e-11
1.14854e-11
1.16916e-11
1.17351e-11
1.19128e-11
1.19343e-11
1.21558e-11
1.20925e-11
1.22873e-11
1.2304e-11
1.25735e-11
1.25552e-11
1.27997e-11
1.27979e-11
1.30861e-11
1.31262e-11
1.33093e-11
1.32396e-11
1.33381e-11
1.31273e-11
1.33047e-11
1.34291e-11
1.31665e-11
1.29855e-11
1.38141e-11
1.10468e-11
1.35137e-11
1.53755e-11
1.19207e-11
1.16399e-11
1.44051e-11
1.45903e-11
1.37782e-11
1.26748e-11
1.36282e-11
1.24072e-11
1.20463e-11
1.23025e-11
1.18385e-11
1.168e-11
1.14246e-11
1.15124e-11
1.10563e-11
1.12563e-11
1.08285e-11
1.12365e-11
1.06485e-11
1.11612e-11
1.05392e-11
1.12193e-11
1.04843e-11
1.13132e-11
1.04539e-11
1.14383e-11
1.05351e-11
1.16817e-11
1.07312e-11
1.19982e-11
1.098e-11
1.23356e-11
1.12705e-11
1.27158e-11
1.16299e-11
1.30934e-11
1.18806e-11
1.32984e-11
1.205e-11
1.3475e-11
1.23315e-11
1.3683e-11
1.25183e-11
1.37519e-11
1.26957e-11
1.38941e-11
1.31067e-11
1.39423e-11
1.29202e-11
1.38315e-11
1.30574e-11
1.32194e-11
1.26661e-11
1.38264e-11
1.38536e-11
8.61733e-12
1.36963e-11
1.19869e-11
1.48416e-11
1.58047e-11
1.38666e-11
1.42817e-11
1.52266e-11
1.38846e-11
1.38771e-11
1.40043e-11
1.37996e-11
1.34188e-11
1.35091e-11
1.32144e-11
1.33764e-11
1.30344e-11
1.32963e-11
1.28806e-11
1.32236e-11
1.26084e-11
1.30879e-11
1.23727e-11
1.30211e-11
1.22191e-11
1.29267e-11
1.20447e-11
1.2775e-11
1.18011e-11
1.25229e-11
1.14427e-11
1.22638e-11
1.11036e-11
1.18655e-11
1.06268e-11
1.14332e-11
1.03791e-11
1.14028e-11
1.04424e-11
1.1455e-11
1.05467e-11
1.14221e-11
1.0702e-11
1.15699e-11
1.07256e-11
1.13825e-11
1.07375e-11
1.14002e-11
1.07433e-11
1.12988e-11
1.13262e-11
1.15787e-11
1.10172e-11
1.23836e-11
1.07268e-11
1.044e-11
1.46477e-11
1.02366e-11
1.15937e-11
1.51792e-11
1.51708e-11
1.21172e-11
1.30639e-11
1.41825e-11
1.30025e-11
1.29125e-11
1.31242e-11
1.30726e-11
1.26775e-11
1.26763e-11
1.23558e-11
1.25181e-11
1.1966e-11
1.20838e-11
1.14482e-11
1.19159e-11
1.11565e-11
1.18065e-11
1.09406e-11
1.17774e-11
1.07967e-11
1.18363e-11
1.0679e-11
1.19036e-11
1.06606e-11
1.21448e-11
1.07862e-11
1.22787e-11
1.06182e-11
1.18685e-11
9.78448e-12
1.10458e-11
9.34847e-12
1.13044e-11
1.00209e-11
1.20527e-11
1.04947e-11
1.27782e-11
1.16889e-11
1.37364e-11
1.2452e-11
1.40658e-11
1.26429e-11
1.39814e-11
1.2694e-11
1.41612e-11
1.32889e-11
1.38658e-11
1.27919e-11
1.45825e-11
1.37535e-11
1.42186e-11
1.29141e-11
1.33645e-11
1.18702e-11
1.57684e-11
1.73883e-11
1.6126e-11
1.48572e-11
1.48461e-11
1.31466e-11
1.22439e-11
1.2421e-11
1.17799e-11
1.17265e-11
1.10967e-11
1.14423e-11
1.06918e-11
1.13628e-11
1.04197e-11
1.14216e-11
1.02456e-11
1.15991e-11
1.00377e-11
1.17224e-11
9.72099e-12
1.16715e-11
9.36648e-12
1.18869e-11
9.3485e-12
1.20655e-11
9.29588e-12
1.22898e-11
9.39748e-12
1.30173e-11
1.06208e-11
1.52482e-11
1.30128e-11
1.6867e-11
1.32485e-11
1.63727e-11
1.27449e-11
1.58759e-11
1.25715e-11
1.46034e-11
1.10181e-11
1.38728e-11
1.13498e-11
1.39397e-11
1.17364e-11
1.37407e-11
1.17432e-11
1.34725e-11
1.17298e-11
1.24556e-11
1.1408e-11
1.08085e-11
1.08573e-11
1.03597e-11
1.06493e-11
1.15245e-11
1.59552e-11
1.45499e-11
1.58454e-11
1.38253e-11
1.43073e-11
1.43042e-11
1.43475e-11
1.41074e-11
1.38559e-11
1.35786e-11
1.36214e-11
1.33307e-11
1.32744e-11
1.2962e-11
1.3106e-11
1.2709e-11
1.27745e-11
1.2331e-11
1.24807e-11
1.20309e-11
1.23506e-11
1.19306e-11
1.22131e-11
1.17108e-11
1.20347e-11
1.1472e-11
1.19833e-11
1.13803e-11
1.18902e-11
1.122e-11
1.15182e-11
1.03665e-11
1.04697e-11
9.75027e-12
1.04116e-11
1.00293e-11
1.08124e-11
1.04654e-11
1.10175e-11
1.10358e-11
1.18932e-11
1.16562e-11
1.19224e-11
1.17034e-11
1.20342e-11
1.18114e-11
1.20912e-11
1.22109e-11
1.21812e-11
1.20122e-11
1.28864e-11
1.28161e-11
1.26071e-11
1.07069e-11
1.42756e-11
1.18329e-11
1.62302e-11
1.55338e-11
1.50449e-11
1.44752e-11
1.417e-11
1.38146e-11
1.35133e-11
1.3247e-11
1.30258e-11
1.27998e-11
1.26301e-11
1.2422e-11
1.22757e-11
1.20773e-11
1.19662e-11
1.17753e-11
1.16986e-11
1.15265e-11
1.14915e-11
1.13364e-11
1.13528e-11
1.1173e-11
1.11023e-11
1.08901e-11
1.09954e-11
1.09357e-11
1.10852e-11
1.09971e-11
1.11778e-11
1.11379e-11
1.14039e-11
1.13978e-11
1.16531e-11
1.16485e-11
1.19103e-11
1.18938e-11
1.21458e-11
1.21292e-11
1.23452e-11
1.23473e-11
1.25674e-11
1.25558e-11
1.27387e-11
1.27368e-11
1.28838e-11
1.28433e-11
1.29267e-11
1.28845e-11
1.28852e-11
1.27484e-11
1.27167e-11
1.26319e-11
1.2613e-11
1.22283e-11
1.21447e-11
1.17994e-11
)
;

boundaryField
{
    top
    {
        type            zeroGradient;
    }
    bottom
    {
        type            zeroGradient;
    }
    rotatingWall
    {
        type            zeroGradient;
    }
    wall
    {
        type            zeroGradient;
    }
    frontAndBack
    {
        type            empty;
    }
}


// ************************************************************************* //
