/*--------------------------------*- C++ -*----------------------------------*\
| =========                 |                                                 |
| \\      /  F ield         | OpenFOAM: The Open Source CFD Toolbox           |
|  \\    /   O peration     | Version:  5.0                                   |
|   \\  /    A nd           | Web:      www.OpenFOAM.org                      |
|    \\/     M anipulation  |                                                 |
\*---------------------------------------------------------------------------*/
FoamFile
{
    version     2.0;
    format      ascii;
    class       surfaceScalarField;
    location    "0.7";
    object      phi;
}
// * * * * * * * * * * * * * * * * * * * * * * * * * * * * * * * * * * * * * //

dimensions      [0 3 -1 0 0 0 0];

internalField   nonuniform List<scalar> 
40
(
0.0002
-1.35386e-11
0.0002
-3.80963e-12
0.0002
3.05171e-12
0.0002
9.77831e-12
-1.45814e-12
0.000184
-1.33786e-11
0.000184
-1.21339e-11
0.000184
4.33027e-12
0.000184
2.09348e-11
1.43975e-11
0.000152
-2.18042e-11
0.000152
-2.8842e-11
0.000152
3.49597e-12
0.000152
4.22681e-11
3.13929e-11
0.000104
-1.87264e-11
0.000104
-2.86248e-11
0.000104
2.33954e-12
0.000104
3.97536e-11
2.98395e-11
4e-05
4e-05
4e-05
4e-05
)
;

boundaryField
{
    top
    {
        type            calculated;
        value           uniform 0;
    }
    bottom
    {
        type            symmetryPlane;
        value           uniform 0;
    }
    inlet
    {
        type            calculated;
        value           nonuniform 0();
    }
    outlet
    {
        type            calculated;
        value           nonuniform List<scalar> 5(0.0002 0.000184 0.000152 0.000104 4e-05);
    }
    frontAndBack
    {
        type            empty;
        value           nonuniform 0();
    }
    procBoundary1to0
    {
        type            processor;
        value           nonuniform List<scalar> 5(-0.0002 -0.000184 -0.000152 -0.000104 -4e-05);
    }
}


// ************************************************************************* //
