/*--------------------------------*- C++ -*----------------------------------*\
| =========                 |                                                 |
| \\      /  F ield         | OpenFOAM: The Open Source CFD Toolbox           |
|  \\    /   O peration     | Version:  5.0                                   |
|   \\  /    A nd           | Web:      www.OpenFOAM.org                      |
|    \\/     M anipulation  |                                                 |
\*---------------------------------------------------------------------------*/
FoamFile
{
    version     2.0;
    format      ascii;
    class       volScalarField;
    location    "0.7";
    object      shearRate;
}
// * * * * * * * * * * * * * * * * * * * * * * * * * * * * * * * * * * * * * //

dimensions      [0 0 -1 0 0 0 0];

internalField   nonuniform List<scalar> 
50
(
2.25866e-14
1.60105e-14
2.6154e-14
2.27188e-14
2.4255e-14
2.24616e-14
2.72313e-14
2.3481e-14
5.42363e-15
1.04898e-14
2.38813e-14
2.73351e-14
8.63949e-15
7.18434e-15
1.36014e-14
4.38821e-14
1.40601e-14
2.29929e-14
2.2421e-14
1.23056e-14
7.32396e-15
2.47944e-14
4.76514e-15
6.81737e-15
2.418e-14
6.23672e-15
2.47191e-14
4.49268e-14
7.13054e-15
1.22332e-14
6.51316e-14
6.64352e-14
4.57526e-14
4.41335e-14
2.65742e-14
4.39888e-14
4.4546e-14
2.46093e-14
2.29431e-14
2.45909e-14
6.54668e-14
6.53781e-14
6.5137e-14
2.21017e-14
1.01623e-14
8.69486e-14
4.39176e-14
6.52122e-14
1.08467e-13
6.52755e-14
)
;

boundaryField
{
    top
    {
        type            zeroGradient;
    }
    bottom
    {
        type            symmetryPlane;
    }
    inlet
    {
        type            zeroGradient;
    }
    outlet
    {
        type            zeroGradient;
    }
    frontAndBack
    {
        type            empty;
    }
    procBoundary1to0
    {
        type            processor;
        value           nonuniform List<scalar> 10(2.2105e-14 2.42969e-14 1.28236e-14 4.45659e-14 2.27024e-14 2.32972e-14 2.29948e-14 2.24641e-14 2.25396e-14 6.51137e-14);
    }
}


// ************************************************************************* //
