/*--------------------------------*- C++ -*----------------------------------*\
| =========                 |                                                 |
| \\      /  F ield         | OpenFOAM: The Open Source CFD Toolbox           |
|  \\    /   O peration     | Version:  5.0                                   |
|   \\  /    A nd           | Web:      www.OpenFOAM.org                      |
|    \\/     M anipulation  |                                                 |
\*---------------------------------------------------------------------------*/
FoamFile
{
    version     2.0;
    format      ascii;
    class       volVectorField;
    location    "0.7";
    object      U;
}
// * * * * * * * * * * * * * * * * * * * * * * * * * * * * * * * * * * * * * //

dimensions      [0 1 -1 0 0 0 0];

internalField   nonuniform List<vector> 
50
(
(1.00749 -2.17155e-17 2.84578e-37)
(1.00749 -9.01174e-17 5.38973e-38)
(1.00749 -1.71458e-17 1.45666e-36)
(1.00749 6.1948e-17 2.87452e-36)
(1.00749 3.33317e-17 -8.64759e-38)
(1.00749 2.47692e-17 -1.2355e-37)
(1.00749 -1.34682e-16 -1.81692e-36)
(1.00749 -8.32488e-17 3.60476e-36)
(1.00749 2.62674e-17 1.81692e-36)
(1.00749 5.02017e-17 -1.67306e-36)
(1.00749 3.00763e-17 1.27184e-37)
(1.00749 -2.69471e-16 1.8587e-36)
(1.00749 -1.89745e-16 -1.45517e-35)
(1.00749 2.60679e-17 1.29068e-52)
(1.00749 9.39038e-17 1.89888e-36)
(1.00749 1.06395e-16 2.07492e-36)
(1.00749 -4.75555e-16 -1.78058e-36)
(1.00749 -2.20398e-16 -9.08458e-36)
(1.00749 5.47667e-17 2.72537e-38)
(1.00749 5.76797e-17 -4.31342e-50)
(1.00749 1.09003e-16 2.54368e-37)
(1.00749 -5.67603e-16 3.08876e-38)
(1.00749 -1.68608e-16 5.45075e-36)
(1.00749 1.58714e-16 0)
(1.00749 1.23435e-16 0)
(1.00749 1.8283e-17 4.26886e-49)
(1.00749 -6.3812e-16 6.45498e-50)
(1.00749 -2.22114e-16 1.09015e-35)
(1.00749 1.15577e-16 0)
(1.00749 2.62036e-16 0)
(1.00749 1.27832e-17 -1.94592e-36)
(1.00749 -7.41102e-16 -2.72537e-38)
(1.00749 -2.70257e-16 5.42894e-36)
(1.00749 9.10969e-17 -2.54368e-38)
(1.00749 2.55032e-16 0)
(1.00749 -2.3036e-17 -3.63383e-36)
(1.00749 -7.98017e-16 1.76604e-36)
(1.00749 -3.52533e-16 -1.63613e-35)
(1.00749 1.19228e-16 -1.82782e-36)
(1.00749 1.61519e-16 -9.2273e-38)
(1.00749 -6.91157e-17 3.63383e-36)
(1.00749 -8.05034e-16 3.63383e-36)
(1.00749 -3.07679e-16 1.81692e-36)
(1.00749 7.13343e-17 9.08458e-39)
(1.00749 1.75751e-16 -1.90981e-36)
(1.00749 -7.29808e-17 2.54383e-36)
(1.00749 -8.46486e-16 -1.03175e-37)
(1.00749 -2.63059e-16 -6.87832e-36)
(1.00749 4.93004e-17 -6.19049e-38)
(1.00749 1.72817e-16 -3.36235e-37)
)
;

boundaryField
{
    top
    {
        type            zeroGradient;
    }
    bottom
    {
        type            symmetryPlane;
    }
    inlet
    {
        type            pressureInletVelocity;
        value           nonuniform 0();
    }
    outlet
    {
        type            inletOutlet;
        inletValue      uniform (1 0 0);
        value           nonuniform List<vector> 10((1.00749 3.33317e-17 -8.64759e-38) (1.00749 5.02017e-17 -1.67306e-36) (1.00749 9.39038e-17 1.89888e-36) (1.00749 5.76797e-17 -4.31342e-50) (1.00749 1.23435e-16 0) (1.00749 2.62036e-16 0) (1.00749 2.55032e-16 0) (1.00749 1.61519e-16 -9.2273e-38) (1.00749 1.75751e-16 -1.90981e-36) (1.00749 1.72817e-16 -3.36235e-37));
    }
    frontAndBack
    {
        type            empty;
    }
    procBoundary1to0
    {
        type            processor;
        value           nonuniform List<vector> 10((1.00749 -2.51388e-17 -2.87452e-36) (1.00749 -6.43914e-17 -1.03564e-37) (1.00749 5.36841e-17 -2.10762e-37) (1.00749 1.87868e-16 -1.60252e-36) (1.00749 2.30702e-16 -1.59525e-36) (1.00749 2.25114e-16 -1.12649e-37) (1.00749 2.75372e-16 -6.04751e-50) (1.00749 2.49378e-16 3.21594e-37) (1.00749 2.43948e-16 1.05272e-51) (1.00749 2.59225e-16 1.34533e-52));
    }
}


// ************************************************************************* //
