/*--------------------------------*- C++ -*----------------------------------*\
| =========                 |                                                 |
| \\      /  F ield         | OpenFOAM: The Open Source CFD Toolbox           |
|  \\    /   O peration     | Version:  5.0                                   |
|   \\  /    A nd           | Web:      www.OpenFOAM.org                      |
|    \\/     M anipulation  |                                                 |
\*---------------------------------------------------------------------------*/
FoamFile
{
    version     2.0;
    format      ascii;
    class       surfaceScalarField;
    location    "3.3";
    object      phi;
}
// * * * * * * * * * * * * * * * * * * * * * * * * * * * * * * * * * * * * * //

dimensions      [0 3 -1 0 0 0 0];

internalField   nonuniform List<scalar> 
40
(
0.0002
-5.55506e-12
0.0002
5.4245e-12
0.0002
-7.23115e-12
0.0002
8.59261e-12
4.25548e-13
0.000184
-1.5149e-13
0.000184
-1.07582e-12
0.000184
2.58588e-13
0.000184
-1.27994e-12
-5.9342e-13
0.000152
4.08122e-12
0.000152
-5.4716e-12
0.000152
3.70005e-12
0.000152
-1.41212e-11
-1.70575e-12
0.000104
5.91798e-12
0.000104
-6.98823e-12
0.000104
5.21461e-12
0.000104
-1.83345e-11
-1.7897e-12
4e-05
4e-05
4e-05
4e-05
)
;

boundaryField
{
    top
    {
        type            calculated;
        value           uniform 0;
    }
    bottom
    {
        type            symmetryPlane;
        value           uniform 0;
    }
    inlet
    {
        type            calculated;
        value           nonuniform List<scalar> 5(-0.0002 -0.000184 -0.000152 -0.000104 -4e-05);
    }
    outlet
    {
        type            calculated;
        value           nonuniform 0();
    }
    frontAndBack
    {
        type            empty;
        value           nonuniform 0();
    }
    procBoundary0to1
    {
        type            processor;
        value           nonuniform List<scalar> 5(0.0002 0.000184 0.000152 0.000104 4e-05);
    }
}


// ************************************************************************* //
