/*--------------------------------*- C++ -*----------------------------------*\
| =========                 |                                                 |
| \\      /  F ield         | OpenFOAM: The Open Source CFD Toolbox           |
|  \\    /   O peration     | Version:  5.0                                   |
|   \\  /    A nd           | Web:      www.OpenFOAM.org                      |
|    \\/     M anipulation  |                                                 |
\*---------------------------------------------------------------------------*/
FoamFile
{
    version     2.0;
    format      ascii;
    class       volScalarField;
    location    "349";
    object      p;
}
// * * * * * * * * * * * * * * * * * * * * * * * * * * * * * * * * * * * * * //

dimensions      [0 2 -2 0 0 0 0];

internalField   nonuniform List<scalar> 
1568
(
1.10886e-16
5.48655e-16
8.9383e-16
1.07457e-15
1.2462e-15
1.40859e-15
1.52752e-15
1.64069e-15
1.74734e-15
1.84388e-15
1.93518e-15
2.02473e-15
2.11321e-15
2.20027e-15
2.28769e-15
2.37641e-15
2.46629e-15
2.55794e-15
2.65138e-15
2.74706e-15
2.84443e-15
2.94407e-15
3.04139e-15
3.1143e-15
3.1697e-15
3.24279e-15
3.36072e-15
3.53205e-15
3.72561e-15
3.89761e-15
4.01617e-15
4.09027e-15
4.14538e-15
4.21807e-15
4.31507e-15
4.41507e-15
4.51173e-15
4.60795e-15
4.7011e-15
4.79278e-15
4.88251e-15
4.97143e-15
5.05839e-15
5.1459e-15
5.23346e-15
5.32284e-15
5.41478e-15
5.51202e-15
5.61508e-15
5.72794e-15
5.8558e-15
6.00205e-15
6.17064e-15
6.36956e-15
6.68833e-15
7.04749e-15
3.72366e-16
4.7297e-16
1.2313e-15
1.20586e-15
1.20019e-15
1.54745e-15
1.62409e-15
1.70942e-15
1.84377e-15
1.94454e-15
2.02678e-15
2.1134e-15
2.20383e-15
2.28738e-15
2.37367e-15
2.46004e-15
2.54553e-15
2.63332e-15
2.72224e-15
2.81311e-15
2.90424e-15
2.99935e-15
3.09624e-15
3.20739e-15
3.31458e-15
3.4189e-15
3.5206e-15
3.60469e-15
3.65387e-15
3.74433e-15
3.84472e-15
3.94598e-15
4.04476e-15
4.15991e-15
4.25604e-15
4.35648e-15
4.44165e-15
4.53819e-15
4.62321e-15
4.71142e-15
4.79822e-15
4.89015e-15
4.97173e-15
5.05774e-15
5.1419e-15
5.23261e-15
5.32419e-15
5.42316e-15
5.52323e-15
5.64462e-15
5.78284e-15
5.92046e-15
6.09505e-15
6.24324e-15
6.64623e-15
6.87117e-15
6.30682e-16
9.7086e-16
8.12081e-16
1.2793e-15
1.49814e-15
1.60895e-15
1.68766e-15
1.85028e-15
1.95165e-15
2.00906e-15
2.13173e-15
2.23193e-15
2.29744e-15
2.38129e-15
2.46783e-15
2.54087e-15
2.62285e-15
2.70495e-15
2.78897e-15
2.86916e-15
2.95429e-15
3.03995e-15
3.13126e-15
3.21691e-15
3.302e-15
3.37545e-15
3.46986e-15
3.57472e-15
3.68528e-15
3.78259e-15
3.87651e-15
3.96028e-15
4.05924e-15
4.14387e-15
4.22822e-15
4.30834e-15
4.40068e-15
4.47498e-15
4.56026e-15
4.64354e-15
4.71688e-15
4.78371e-15
4.87295e-15
4.95249e-15
5.03919e-15
5.12573e-15
5.21677e-15
5.31333e-15
5.42218e-15
5.53757e-15
5.65059e-15
5.76166e-15
6.031e-15
6.14469e-15
6.426e-15
6.64656e-15
8.30912e-16
1.06331e-15
1.422e-15
1.43865e-15
1.64799e-15
1.76425e-15
1.84929e-15
1.99318e-15
2.10805e-15
2.19356e-15
2.27363e-15
2.34971e-15
2.43383e-15
2.51961e-15
2.58827e-15
2.66773e-15
2.74471e-15
2.81667e-15
2.88732e-15
2.96873e-15
3.04358e-15
3.11897e-15
3.191e-15
3.26826e-15
3.33919e-15
3.41799e-15
3.49874e-15
3.58797e-15
3.67537e-15
3.76657e-15
3.84827e-15
3.91481e-15
3.97821e-15
4.0507e-15
4.13163e-15
4.20729e-15
4.28395e-15
4.36315e-15
4.43478e-15
4.51199e-15
4.59376e-15
4.67823e-15
4.75224e-15
4.82832e-15
4.90806e-15
4.99093e-15
5.07352e-15
5.17423e-15
5.27482e-15
5.36929e-15
5.53024e-15
5.67962e-15
5.77709e-15
5.89356e-15
6.27964e-15
6.43184e-15
1.05593e-15
1.12256e-15
1.4844e-15
1.56942e-15
1.74027e-15
1.85887e-15
1.97979e-15
2.09411e-15
2.17377e-15
2.26733e-15
2.35415e-15
2.43406e-15
2.50971e-15
2.57864e-15
2.64824e-15
2.72129e-15
2.79051e-15
2.86208e-15
2.9334e-15
3.00382e-15
3.07387e-15
3.14608e-15
3.21935e-15
3.29438e-15
3.36609e-15
3.44171e-15
3.51702e-15
3.59085e-15
3.66455e-15
3.74092e-15
3.81875e-15
3.8973e-15
3.97195e-15
4.04603e-15
4.12174e-15
4.19334e-15
4.26015e-15
4.33211e-15
4.40206e-15
4.4694e-15
4.53566e-15
4.60379e-15
4.67259e-15
4.74697e-15
4.82166e-15
4.90203e-15
4.98883e-15
5.07271e-15
5.16197e-15
5.28979e-15
5.3958e-15
5.45573e-15
5.69258e-15
5.86233e-15
6.01529e-15
6.1926e-15
1.31501e-15
1.47549e-15
1.66858e-15
1.81034e-15
1.908e-15
2.0098e-15
2.14759e-15
2.24431e-15
2.30935e-15
2.39789e-15
2.48235e-15
2.55402e-15
2.62119e-15
2.69071e-15
2.76006e-15
2.82157e-15
2.88264e-15
2.94623e-15
3.01057e-15
3.07106e-15
3.13453e-15
3.20039e-15
3.26512e-15
3.32915e-15
3.39483e-15
3.45875e-15
3.52642e-15
3.59616e-15
3.66498e-15
3.73265e-15
3.79834e-15
3.86393e-15
3.93213e-15
3.99682e-15
4.05797e-15
4.12174e-15
4.18616e-15
4.24919e-15
4.31326e-15
4.37753e-15
4.4404e-15
4.50457e-15
4.57228e-15
4.63816e-15
4.70887e-15
4.78178e-15
4.85323e-15
4.94376e-15
5.03862e-15
5.10289e-15
5.22994e-15
5.39147e-15
5.46616e-15
5.51466e-15
5.83223e-15
5.95336e-15
1.56631e-15
1.70363e-15
1.86935e-15
1.9755e-15
2.09452e-15
2.20995e-15
2.30258e-15
2.37988e-15
2.46634e-15
2.54667e-15
2.61407e-15
2.67616e-15
2.73919e-15
2.80126e-15
2.85934e-15
2.91731e-15
2.97607e-15
3.03211e-15
3.08751e-15
3.14507e-15
3.20215e-15
3.25688e-15
3.31235e-15
3.36903e-15
3.42665e-15
3.48414e-15
3.54267e-15
3.60112e-15
3.66053e-15
3.72021e-15
3.7767e-15
3.83153e-15
3.888e-15
3.94422e-15
3.99969e-15
4.05618e-15
4.11451e-15
4.16988e-15
4.22518e-15
4.28235e-15
4.34096e-15
4.39966e-15
4.45887e-15
4.51905e-15
4.58294e-15
4.64977e-15
4.71898e-15
4.79371e-15
4.87057e-15
4.96874e-15
5.07256e-15
5.1176e-15
5.2892e-15
5.44461e-15
5.56856e-15
5.69332e-15
1.82454e-15
1.91882e-15
2.07709e-15
2.17247e-15
2.28626e-15
2.37579e-15
2.44668e-15
2.52176e-15
2.60342e-15
2.66545e-15
2.72615e-15
2.78727e-15
2.84516e-15
2.89826e-15
2.94937e-15
3.00119e-15
3.0522e-15
3.10168e-15
3.15115e-15
3.20092e-15
3.24992e-15
3.29968e-15
3.34974e-15
3.40014e-15
3.45009e-15
3.50133e-15
3.55217e-15
3.60331e-15
3.65518e-15
3.70641e-15
3.75938e-15
3.81198e-15
3.86095e-15
3.91093e-15
3.96298e-15
4.01258e-15
4.06066e-15
4.11022e-15
4.15944e-15
4.20888e-15
4.25836e-15
4.30823e-15
4.35987e-15
4.41405e-15
4.47032e-15
4.52899e-15
4.58829e-15
4.65935e-15
4.73409e-15
4.79524e-15
4.88761e-15
4.99997e-15
5.08164e-15
5.11223e-15
5.3402e-15
5.43439e-15
2.09342e-15
2.1785e-15
2.3261e-15
2.39948e-15
2.48114e-15
2.5447e-15
2.62325e-15
2.69474e-15
2.75328e-15
2.80959e-15
2.86415e-15
2.9126e-15
2.96239e-15
3.00998e-15
3.05468e-15
3.09829e-15
3.14058e-15
3.18352e-15
3.22616e-15
3.26706e-15
3.30868e-15
3.35265e-15
3.39451e-15
3.43653e-15
3.47934e-15
3.5222e-15
3.56502e-15
3.60856e-15
3.65195e-15
3.69446e-15
3.73787e-15
3.78102e-15
3.824e-15
3.86623e-15
3.9082e-15
3.94988e-15
3.99152e-15
4.03358e-15
4.0762e-15
4.11875e-15
4.16148e-15
4.20586e-15
4.25162e-15
4.29732e-15
4.34503e-15
4.39718e-15
4.45142e-15
4.50771e-15
4.56468e-15
4.63575e-15
4.7191e-15
4.75566e-15
4.87285e-15
4.97491e-15
5.07466e-15
5.16278e-15
2.36725e-15
2.43946e-15
2.54845e-15
2.60691e-15
2.68047e-15
2.73689e-15
2.80831e-15
2.86228e-15
2.90407e-15
2.9552e-15
3.0031e-15
3.04341e-15
3.08299e-15
3.12183e-15
3.15818e-15
3.19547e-15
3.23102e-15
3.26565e-15
3.29994e-15
3.3362e-15
3.37e-15
3.40327e-15
3.43788e-15
3.47319e-15
3.50757e-15
3.54227e-15
3.57755e-15
3.61292e-15
3.64775e-15
3.68345e-15
3.71768e-15
3.75177e-15
3.78643e-15
3.82129e-15
3.8553e-15
3.88915e-15
3.9243e-15
3.95916e-15
3.9936e-15
4.02833e-15
4.06398e-15
4.10068e-15
4.13757e-15
4.17593e-15
4.21668e-15
4.25888e-15
4.30041e-15
4.35168e-15
4.40556e-15
4.44847e-15
4.51571e-15
4.58153e-15
4.6586e-15
4.6835e-15
4.8249e-15
4.89079e-15
2.64401e-15
2.69938e-15
2.77725e-15
2.83153e-15
2.8915e-15
2.93281e-15
2.9837e-15
3.0239e-15
3.06316e-15
3.10285e-15
3.13574e-15
3.17031e-15
3.20256e-15
3.23194e-15
3.26097e-15
3.29002e-15
3.31855e-15
3.34576e-15
3.37261e-15
3.39922e-15
3.42699e-15
3.45312e-15
3.4803e-15
3.50647e-15
3.53318e-15
3.56023e-15
3.58891e-15
3.61681e-15
3.64475e-15
3.67233e-15
3.69883e-15
3.72602e-15
3.75333e-15
3.78018e-15
3.80721e-15
3.83412e-15
3.86084e-15
3.88747e-15
3.91439e-15
3.94186e-15
3.96967e-15
3.99759e-15
4.02638e-15
4.05685e-15
4.08878e-15
4.12103e-15
4.15616e-15
4.19588e-15
4.23101e-15
4.27194e-15
4.33718e-15
4.3605e-15
4.4174e-15
4.48242e-15
4.56019e-15
4.6118e-15
2.92489e-15
2.96608e-15
3.0226e-15
3.05952e-15
3.10315e-15
3.12952e-15
3.1672e-15
3.19677e-15
3.22458e-15
3.25246e-15
3.2778e-15
3.29969e-15
3.32166e-15
3.34615e-15
3.36873e-15
3.38751e-15
3.40692e-15
3.42698e-15
3.44736e-15
3.4653e-15
3.4851e-15
3.50465e-15
3.5245e-15
3.5442e-15
3.5652e-15
3.5841e-15
3.60169e-15
3.61842e-15
3.63714e-15
3.65731e-15
3.67834e-15
3.69839e-15
3.71726e-15
3.73603e-15
3.7551e-15
3.7753e-15
3.79391e-15
3.81273e-15
3.83238e-15
3.85206e-15
3.87158e-15
3.89229e-15
3.91361e-15
3.93665e-15
3.95924e-15
3.98209e-15
4.00638e-15
4.03294e-15
4.06534e-15
4.09104e-15
4.12125e-15
4.15203e-15
4.218e-15
4.2294e-15
4.28861e-15
4.331e-15
3.20728e-15
3.23307e-15
3.26806e-15
3.28827e-15
3.31489e-15
3.32902e-15
3.35534e-15
3.37372e-15
3.38747e-15
3.4012e-15
3.43035e-15
3.44477e-15
3.44485e-15
3.46319e-15
3.47526e-15
3.48657e-15
3.49881e-15
3.51074e-15
3.52229e-15
3.53382e-15
3.54448e-15
3.55639e-15
3.56671e-15
3.5767e-15
3.58697e-15
3.59896e-15
3.61209e-15
3.6268e-15
3.63934e-15
3.64884e-15
3.65872e-15
3.6698e-15
3.68113e-15
3.69311e-15
3.70426e-15
3.71434e-15
3.72616e-15
3.73796e-15
3.74929e-15
3.76075e-15
3.77241e-15
3.78447e-15
3.79673e-15
3.81286e-15
3.81476e-15
3.83028e-15
3.85556e-15
3.87339e-15
3.88452e-15
3.89337e-15
3.94221e-15
3.9489e-15
3.95216e-15
3.97777e-15
4.03353e-15
4.04896e-15
3.49151e-15
3.50074e-15
3.51041e-15
3.51931e-15
3.53056e-15
3.53111e-15
3.54323e-15
3.54936e-15
3.55498e-15
3.55961e-15
3.56799e-15
3.57006e-15
3.57145e-15
3.58262e-15
3.5819e-15
3.58516e-15
3.58997e-15
3.593e-15
3.59573e-15
3.60007e-15
3.60391e-15
3.60731e-15
3.61092e-15
3.61586e-15
3.6192e-15
3.62288e-15
3.62497e-15
3.62705e-15
3.6303e-15
3.63479e-15
3.63869e-15
3.64266e-15
3.64575e-15
3.649e-15
3.65339e-15
3.65598e-15
3.66019e-15
3.66345e-15
3.6665e-15
3.67057e-15
3.67421e-15
3.67623e-15
3.67735e-15
3.68725e-15
3.68827e-15
3.6919e-15
3.69732e-15
3.7008e-15
3.71203e-15
3.72151e-15
3.72016e-15
3.70365e-15
3.76778e-15
3.75828e-15
3.74843e-15
3.76317e-15
3.77575e-15
3.77008e-15
3.75707e-15
3.75043e-15
3.74777e-15
3.73315e-15
3.73157e-15
3.72393e-15
3.71468e-15
3.71298e-15
3.70328e-15
3.70009e-15
3.69981e-15
3.6881e-15
3.68704e-15
3.6843e-15
3.67956e-15
3.67484e-15
3.67121e-15
3.6674e-15
3.66287e-15
3.6578e-15
3.65427e-15
3.65091e-15
3.64686e-15
3.64189e-15
3.63739e-15
3.63118e-15
3.62612e-15
3.62297e-15
3.61937e-15
3.61465e-15
3.61046e-15
3.60537e-15
3.60122e-15
3.59773e-15
3.59296e-15
3.58808e-15
3.58434e-15
3.57973e-15
3.57534e-15
3.57195e-15
3.57127e-15
3.55995e-15
3.55833e-15
3.55467e-15
3.54656e-15
3.54664e-15
3.53276e-15
3.51468e-15
3.5371e-15
3.52537e-15
3.49213e-15
3.4625e-15
3.50016e-15
3.48055e-15
4.06058e-15
4.04356e-15
4.00159e-15
3.97988e-15
3.96461e-15
3.93462e-15
3.92059e-15
3.90078e-15
3.88151e-15
3.87155e-15
3.84304e-15
3.8269e-15
3.82657e-15
3.80824e-15
3.79605e-15
3.78368e-15
3.7707e-15
3.75915e-15
3.74706e-15
3.73407e-15
3.72178e-15
3.71108e-15
3.69748e-15
3.68337e-15
3.67021e-15
3.65828e-15
3.64825e-15
3.63904e-15
3.62715e-15
3.61345e-15
3.59882e-15
3.5864e-15
3.5747e-15
3.56324e-15
3.54965e-15
3.53802e-15
3.52499e-15
3.5137e-15
3.50142e-15
3.48868e-15
3.47579e-15
3.46402e-15
3.45019e-15
3.43235e-15
3.43134e-15
3.41713e-15
3.38676e-15
3.3716e-15
3.36086e-15
3.34945e-15
3.31275e-15
3.26346e-15
3.31613e-15
3.27454e-15
3.20971e-15
3.19368e-15
4.34294e-15
4.30588e-15
4.24451e-15
4.21099e-15
4.17877e-15
4.13289e-15
4.10731e-15
4.07555e-15
4.0445e-15
4.02104e-15
3.99366e-15
3.96985e-15
3.94818e-15
3.92384e-15
3.90216e-15
3.88079e-15
3.86092e-15
3.84031e-15
3.82046e-15
3.80025e-15
3.7809e-15
3.76063e-15
3.74152e-15
3.72289e-15
3.70426e-15
3.6832e-15
3.66101e-15
3.63787e-15
3.61747e-15
3.59776e-15
3.57916e-15
3.55952e-15
3.53907e-15
3.51863e-15
3.49914e-15
3.47915e-15
3.45945e-15
3.43915e-15
3.41889e-15
3.39866e-15
3.3782e-15
3.3573e-15
3.33552e-15
3.31125e-15
3.28895e-15
3.26463e-15
3.23713e-15
3.21853e-15
3.18031e-15
3.13543e-15
3.13923e-15
3.10243e-15
3.01877e-15
2.96767e-15
2.96708e-15
2.91344e-15
4.62502e-15
4.57796e-15
4.48685e-15
4.43645e-15
4.3919e-15
4.33117e-15
4.29193e-15
4.24832e-15
4.20541e-15
4.1701e-15
4.13431e-15
4.1008e-15
4.06895e-15
4.03786e-15
4.00808e-15
3.97963e-15
3.95117e-15
3.92265e-15
3.89496e-15
3.86758e-15
3.84033e-15
3.81156e-15
3.78414e-15
3.7553e-15
3.72745e-15
3.69906e-15
3.673e-15
3.64449e-15
3.61745e-15
3.58797e-15
3.56066e-15
3.53107e-15
3.50409e-15
3.47506e-15
3.44899e-15
3.41962e-15
3.39313e-15
3.364e-15
3.33745e-15
3.30804e-15
3.28029e-15
3.24969e-15
3.22176e-15
3.18887e-15
3.15772e-15
3.12594e-15
3.08851e-15
3.04535e-15
3.01656e-15
2.98082e-15
2.90973e-15
2.83274e-15
2.86974e-15
2.79945e-15
2.67056e-15
2.62911e-15
4.90252e-15
4.83367e-15
4.72624e-15
4.65853e-15
4.60076e-15
4.52645e-15
4.47381e-15
4.41842e-15
4.36434e-15
4.31994e-15
4.27351e-15
4.2312e-15
4.18993e-15
4.1527e-15
4.11317e-15
4.07853e-15
4.03973e-15
4.00703e-15
3.96851e-15
3.93641e-15
3.89722e-15
3.86612e-15
3.82703e-15
3.79529e-15
3.75514e-15
3.72355e-15
3.68254e-15
3.65116e-15
3.60985e-15
3.57841e-15
3.53658e-15
3.50545e-15
3.46503e-15
3.43436e-15
3.39351e-15
3.36328e-15
3.32332e-15
3.29248e-15
3.25228e-15
3.22087e-15
3.18019e-15
3.14763e-15
3.10595e-15
3.06956e-15
3.0265e-15
2.98444e-15
2.93637e-15
2.90248e-15
2.83532e-15
2.75949e-15
2.75673e-15
2.69018e-15
2.55598e-15
2.47568e-15
2.44123e-15
2.35481e-15
5.17773e-15
5.09655e-15
4.95898e-15
4.87287e-15
4.80198e-15
4.71066e-15
4.64812e-15
4.58127e-15
4.51719e-15
4.46049e-15
4.4076e-15
4.3547e-15
4.30799e-15
4.25947e-15
4.21508e-15
4.16813e-15
4.12686e-15
4.0817e-15
4.04132e-15
3.99579e-15
3.95574e-15
3.91103e-15
3.86987e-15
3.82507e-15
3.78398e-15
3.7386e-15
3.6964e-15
3.65089e-15
3.60815e-15
3.5627e-15
3.52046e-15
3.47614e-15
3.4337e-15
3.38931e-15
3.34702e-15
3.30389e-15
3.26131e-15
3.21864e-15
3.17632e-15
3.13317e-15
3.0894e-15
3.04579e-15
3.00006e-15
2.95286e-15
2.90317e-15
2.85593e-15
2.80002e-15
2.7327e-15
2.67783e-15
2.64466e-15
2.52523e-15
2.39603e-15
2.44562e-15
2.35758e-15
2.14501e-15
2.07585e-15
5.44715e-15
5.34689e-15
5.18568e-15
5.08758e-15
5.00742e-15
4.89575e-15
4.81992e-15
4.74321e-15
4.66898e-15
4.60234e-15
4.54265e-15
4.4792e-15
4.42623e-15
4.36683e-15
4.32109e-15
4.26319e-15
4.22015e-15
4.15975e-15
4.12031e-15
4.05934e-15
4.02173e-15
3.95728e-15
3.9213e-15
3.85547e-15
3.82038e-15
3.7519e-15
3.71797e-15
3.64649e-15
3.61353e-15
3.54171e-15
3.51049e-15
3.43868e-15
3.40875e-15
3.33793e-15
3.30911e-15
3.23601e-15
3.20653e-15
3.13597e-15
3.10543e-15
3.03444e-15
3.00218e-15
2.93076e-15
2.89448e-15
2.82484e-15
2.78565e-15
2.71029e-15
2.65454e-15
2.58992e-15
2.52906e-15
2.39495e-15
2.36933e-15
2.32768e-15
2.12672e-15
1.97655e-15
1.94103e-15
1.81261e-15
5.70987e-15
5.5864e-15
5.41596e-15
5.27668e-15
5.19172e-15
5.07839e-15
4.98216e-15
4.8996e-15
4.81472e-15
4.7449e-15
4.66833e-15
4.60767e-15
4.53952e-15
4.48547e-15
4.41568e-15
4.36593e-15
4.29842e-15
4.25354e-15
4.18223e-15
4.13951e-15
4.06611e-15
4.02561e-15
3.95079e-15
3.90943e-15
3.83287e-15
3.79184e-15
3.71295e-15
3.6715e-15
3.59052e-15
3.54949e-15
3.468e-15
3.42757e-15
3.3476e-15
3.30748e-15
3.22937e-15
3.19321e-15
3.11856e-15
3.0771e-15
3.00332e-15
2.9634e-15
2.89119e-15
2.84824e-15
2.77529e-15
2.72468e-15
2.64685e-15
2.59e-15
2.51775e-15
2.4447e-15
2.34643e-15
2.30121e-15
2.19919e-15
1.97924e-15
2.01843e-15
1.92533e-15
1.65432e-15
1.54415e-15
5.96531e-15
5.82281e-15
5.61744e-15
5.47295e-15
5.36257e-15
5.23476e-15
5.13144e-15
5.03742e-15
4.94299e-15
4.86471e-15
4.78371e-15
4.71468e-15
4.63663e-15
4.57679e-15
4.5014e-15
4.44847e-15
4.36966e-15
4.32161e-15
4.24082e-15
4.19637e-15
4.11089e-15
4.07018e-15
3.97885e-15
3.94246e-15
3.84735e-15
3.81334e-15
3.71336e-15
3.68065e-15
3.57595e-15
3.54568e-15
3.43913e-15
3.4131e-15
3.30823e-15
3.28444e-15
3.17814e-15
3.15611e-15
3.04749e-15
3.02791e-15
2.92636e-15
2.90199e-15
2.7968e-15
2.77246e-15
2.6706e-15
2.63626e-15
2.53651e-15
2.4965e-15
2.38336e-15
2.32636e-15
2.22498e-15
2.12777e-15
1.995e-15
1.9602e-15
1.78816e-15
1.5605e-15
1.44974e-15
1.29494e-15
6.21308e-15
6.06662e-15
5.81034e-15
5.68493e-15
5.54078e-15
5.39536e-15
5.29626e-15
5.18221e-15
5.08767e-15
4.99492e-15
4.92108e-15
4.82916e-15
4.76803e-15
4.67976e-15
4.62755e-15
4.53546e-15
4.49054e-15
4.39119e-15
4.35366e-15
4.24583e-15
4.21441e-15
4.09839e-15
4.07178e-15
3.94942e-15
3.92594e-15
3.7977e-15
3.77484e-15
3.6395e-15
3.62195e-15
3.48385e-15
3.47278e-15
3.33895e-15
3.33062e-15
3.19474e-15
3.18415e-15
3.04374e-15
3.03508e-15
2.90479e-15
2.88339e-15
2.75504e-15
2.73686e-15
2.61112e-15
2.58624e-15
2.46865e-15
2.43471e-15
2.31641e-15
2.26324e-15
2.15059e-15
2.07913e-15
1.94944e-15
1.87018e-15
1.68633e-15
1.54511e-15
1.51196e-15
1.18407e-15
1.04342e-15
6.44534e-15
6.26462e-15
5.94563e-15
5.82575e-15
5.6785e-15
5.52948e-15
5.4185e-15
5.30614e-15
5.20355e-15
5.1117e-15
5.02341e-15
4.9384e-15
4.86068e-15
4.77845e-15
4.70224e-15
4.62156e-15
4.55075e-15
4.4674e-15
4.39788e-15
4.3124e-15
4.2437e-15
4.15633e-15
4.08895e-15
3.99585e-15
3.9332e-15
3.84068e-15
3.7747e-15
3.66859e-15
3.59635e-15
3.48665e-15
3.41598e-15
3.30638e-15
3.24112e-15
3.13968e-15
3.0869e-15
2.99282e-15
2.94167e-15
2.83499e-15
2.79111e-15
2.70168e-15
2.65579e-15
2.5565e-15
2.50329e-15
2.40134e-15
2.34142e-15
2.2377e-15
2.174e-15
2.06165e-15
1.97151e-15
1.83734e-15
1.75532e-15
1.59801e-15
1.45291e-15
1.28437e-15
9.985e-16
8.14876e-16
6.66684e-15
6.47382e-15
6.16181e-15
5.97663e-15
5.82427e-15
5.65911e-15
5.52553e-15
5.41961e-15
5.30419e-15
5.21397e-15
5.11211e-15
5.03745e-15
4.9377e-15
4.87551e-15
4.77318e-15
4.71926e-15
4.60911e-15
4.56262e-15
4.44159e-15
4.403e-15
4.26943e-15
4.23604e-15
4.09278e-15
4.06968e-15
3.92636e-15
3.91594e-15
3.74841e-15
3.71699e-15
3.53471e-15
3.51131e-15
3.33947e-15
3.36013e-15
3.20716e-15
3.20775e-15
3.02874e-15
3.02587e-15
2.85116e-15
2.85225e-15
2.69239e-15
2.66967e-15
2.50458e-15
2.49981e-15
2.35113e-15
2.33058e-15
2.18999e-15
2.15692e-15
2.01031e-15
1.95411e-15
1.81916e-15
1.73588e-15
1.56764e-15
1.41698e-15
1.28947e-15
1.09048e-15
7.89364e-16
5.9344e-16
6.88721e-15
6.63816e-15
6.29783e-15
6.09568e-15
5.94252e-15
5.79671e-15
5.66851e-15
5.55085e-15
5.44634e-15
5.3485e-15
5.25765e-15
5.16651e-15
5.08112e-15
4.99273e-15
4.90983e-15
4.82017e-15
4.73574e-15
4.64422e-15
4.55786e-15
4.46184e-15
4.37326e-15
4.27409e-15
4.17822e-15
4.06005e-15
3.95267e-15
3.8452e-15
3.74664e-15
3.65831e-15
3.60577e-15
3.51592e-15
3.41589e-15
3.30002e-15
3.18813e-15
3.06953e-15
2.97765e-15
2.87798e-15
2.79244e-15
2.69584e-15
2.60833e-15
2.52302e-15
2.44521e-15
2.35456e-15
2.26951e-15
2.18201e-15
2.09665e-15
2.00624e-15
1.91459e-15
1.81783e-15
1.71088e-15
1.59475e-15
1.46998e-15
1.32327e-15
1.16142e-15
9.60373e-16
6.26709e-16
3.73622e-16
7.06431e-15
6.70076e-15
6.38636e-15
6.18496e-15
6.01664e-15
5.86971e-15
5.74259e-15
5.62884e-15
5.52525e-15
5.42794e-15
5.33575e-15
5.24569e-15
5.15813e-15
5.06978e-15
4.9824e-15
4.89244e-15
4.80284e-15
4.70944e-15
4.61638e-15
4.51871e-15
4.42191e-15
4.31991e-15
4.22373e-15
4.14912e-15
4.0945e-15
4.01832e-15
3.90039e-15
3.72576e-15
3.53328e-15
3.35897e-15
3.24212e-15
3.16593e-15
3.11193e-15
3.03674e-15
2.94149e-15
2.83826e-15
2.74234e-15
2.64344e-15
2.5509e-15
2.45643e-15
2.36764e-15
2.27606e-15
2.18974e-15
2.10039e-15
2.01365e-15
1.9225e-15
1.83125e-15
1.73309e-15
1.62971e-15
1.51511e-15
1.38899e-15
1.24207e-15
1.07332e-15
8.72099e-16
5.58199e-16
1.94848e-16
)
;

boundaryField
{
    top
    {
        type            zeroGradient;
    }
    bottom
    {
        type            zeroGradient;
    }
    rotatingWall
    {
        type            zeroGradient;
    }
    wall
    {
        type            zeroGradient;
    }
    frontAndBack
    {
        type            empty;
    }
}


// ************************************************************************* //
