/*--------------------------------*- C++ -*----------------------------------*\
| =========                 |                                                 |
| \\      /  F ield         | OpenFOAM: The Open Source CFD Toolbox           |
|  \\    /   O peration     | Version:  5.0                                   |
|   \\  /    A nd           | Web:      www.OpenFOAM.org                      |
|    \\/     M anipulation  |                                                 |
\*---------------------------------------------------------------------------*/
FoamFile
{
    version     2.0;
    format      ascii;
    class       volScalarField;
    location    "398";
    object      p;
}
// * * * * * * * * * * * * * * * * * * * * * * * * * * * * * * * * * * * * * //

dimensions      [0 2 -2 0 0 0 0];

internalField   nonuniform List<scalar> 
1568
(
1.67119e-17
9.19845e-17
1.48442e-16
1.81054e-16
2.10069e-16
2.36281e-16
2.57284e-16
2.76547e-16
2.94437e-16
3.10924e-16
3.26544e-16
3.41765e-16
3.56775e-16
3.71615e-16
3.86511e-16
4.01608e-16
4.16921e-16
4.32528e-16
4.48448e-16
4.6472e-16
4.81302e-16
4.98246e-16
5.14815e-16
5.27182e-16
5.36636e-16
5.49043e-16
5.69146e-16
5.98248e-16
6.31227e-16
6.60434e-16
6.8065e-16
6.93191e-16
7.02624e-16
7.14919e-16
7.31442e-16
7.48406e-16
7.64922e-16
7.8123e-16
7.97118e-16
8.1271e-16
8.28e-16
8.43096e-16
8.57943e-16
8.72806e-16
8.87716e-16
9.02902e-16
9.18562e-16
9.35064e-16
9.52635e-16
9.71861e-16
9.9353e-16
1.01841e-15
1.04706e-15
1.08108e-15
1.13493e-15
1.19628e-15
6.14443e-17
9.46425e-17
1.82766e-16
1.97933e-16
2.13204e-16
2.54183e-16
2.7211e-16
2.89315e-16
3.09514e-16
3.26499e-16
3.41384e-16
3.5626e-16
3.7141e-16
3.85825e-16
4.00371e-16
4.14998e-16
4.29639e-16
4.44532e-16
4.59669e-16
4.75117e-16
4.90783e-16
5.06896e-16
5.23616e-16
5.42599e-16
5.61258e-16
5.7869e-16
5.96289e-16
6.1038e-16
6.19377e-16
6.33936e-16
6.51413e-16
6.68551e-16
6.86511e-16
7.05838e-16
7.22555e-16
7.39074e-16
7.54238e-16
7.70119e-16
7.84966e-16
7.99862e-16
8.1462e-16
8.29662e-16
8.4385e-16
8.5842e-16
8.72972e-16
8.882e-16
9.03912e-16
9.2062e-16
9.38017e-16
9.58193e-16
9.80939e-16
1.00538e-15
1.03398e-15
1.06262e-15
1.12655e-15
1.16614e-15
1.02793e-16
1.48984e-16
1.61939e-16
2.18632e-16
2.5084e-16
2.70377e-16
2.89032e-16
3.13432e-16
3.30389e-16
3.43442e-16
3.62008e-16
3.77812e-16
3.90313e-16
4.04496e-16
4.18796e-16
4.31783e-16
4.45593e-16
4.59479e-16
4.73574e-16
4.87377e-16
5.01709e-16
5.16122e-16
5.31039e-16
5.45601e-16
5.59375e-16
5.72073e-16
5.87973e-16
6.05803e-16
6.24058e-16
6.41229e-16
6.57085e-16
6.70616e-16
6.85494e-16
6.99927e-16
7.14241e-16
7.28197e-16
7.43205e-16
7.5646e-16
7.70663e-16
7.84672e-16
7.97748e-16
8.10241e-16
8.24761e-16
8.38438e-16
8.52904e-16
8.67652e-16
8.83103e-16
8.99537e-16
9.17884e-16
9.3756e-16
9.5792e-16
9.80001e-16
1.01674e-15
1.04064e-15
1.09197e-15
1.12822e-15
1.38494e-16
1.72477e-16
2.28863e-16
2.42305e-16
2.71888e-16
2.94018e-16
3.12734e-16
3.34087e-16
3.52e-16
3.67576e-16
3.81931e-16
3.95337e-16
4.09421e-16
4.23405e-16
4.35652e-16
4.48869e-16
4.61864e-16
4.74397e-16
4.86868e-16
5.00341e-16
5.13307e-16
5.26376e-16
5.39202e-16
5.52474e-16
5.65005e-16
5.7836e-16
5.92339e-16
6.07453e-16
6.22531e-16
6.37874e-16
6.52031e-16
6.64365e-16
6.76284e-16
6.89177e-16
7.0279e-16
7.15809e-16
7.28909e-16
7.42181e-16
7.54705e-16
7.6761e-16
7.80974e-16
7.94586e-16
8.07314e-16
8.20388e-16
8.34014e-16
8.48129e-16
8.62628e-16
8.79272e-16
8.96305e-16
9.13463e-16
9.37993e-16
9.63002e-16
9.83298e-16
1.00605e-15
1.06305e-15
1.0913e-15
1.77473e-16
1.96997e-16
2.49184e-16
2.66791e-16
2.93071e-16
3.15165e-16
3.35363e-16
3.5331e-16
3.68203e-16
3.84112e-16
3.98465e-16
4.11894e-16
4.24841e-16
4.36872e-16
4.48865e-16
4.61102e-16
4.72887e-16
4.84907e-16
4.96919e-16
5.08857e-16
5.20815e-16
5.33028e-16
5.45367e-16
5.57929e-16
5.70197e-16
5.82904e-16
5.95682e-16
6.08408e-16
6.21066e-16
6.33956e-16
6.46913e-16
6.59899e-16
6.72432e-16
6.84898e-16
6.97406e-16
7.09551e-16
7.21192e-16
7.33315e-16
7.45218e-16
7.56866e-16
7.6842e-16
7.80192e-16
7.92102e-16
8.04689e-16
8.17403e-16
8.30939e-16
8.45434e-16
8.59985e-16
8.75775e-16
8.95793e-16
9.14209e-16
9.30162e-16
9.62539e-16
9.89159e-16
1.02268e-15
1.05117e-15
2.20262e-16
2.45753e-16
2.7988e-16
3.03258e-16
3.2251e-16
3.41241e-16
3.61728e-16
3.77984e-16
3.91325e-16
4.06015e-16
4.19629e-16
4.31885e-16
4.43552e-16
4.55202e-16
4.66716e-16
4.77402e-16
4.88019e-16
4.98842e-16
5.09708e-16
5.20215e-16
5.3103e-16
5.42061e-16
5.53004e-16
5.63914e-16
5.75031e-16
5.86004e-16
5.97436e-16
6.09156e-16
6.20816e-16
6.32335e-16
6.43575e-16
6.54673e-16
6.65954e-16
6.76912e-16
6.87533e-16
6.9842e-16
7.09327e-16
7.20024e-16
7.3085e-16
7.41724e-16
7.52484e-16
7.63405e-16
7.74771e-16
7.86077e-16
7.98009e-16
8.10397e-16
8.22975e-16
8.37772e-16
8.53508e-16
8.6688e-16
8.86677e-16
9.11099e-16
9.27646e-16
9.41792e-16
9.87906e-16
1.00997e-15
2.63204e-16
2.84874e-16
3.152e-16
3.33651e-16
3.53188e-16
3.71962e-16
3.87599e-16
4.01678e-16
4.16224e-16
4.29332e-16
4.40879e-16
4.51868e-16
4.62702e-16
4.73174e-16
4.83113e-16
4.9299e-16
5.02899e-16
5.12478e-16
5.21981e-16
5.31717e-16
5.41406e-16
5.50885e-16
5.60478e-16
5.70198e-16
5.8001e-16
5.89849e-16
5.99849e-16
6.09884e-16
6.20025e-16
6.30217e-16
6.40083e-16
6.49697e-16
6.59406e-16
6.69094e-16
6.7869e-16
6.88324e-16
6.98103e-16
7.07599e-16
7.17087e-16
7.26757e-16
7.36599e-16
7.46511e-16
7.56566e-16
7.66839e-16
7.77639e-16
7.89009e-16
8.00871e-16
8.13462e-16
8.26899e-16
8.42902e-16
8.59592e-16
8.72078e-16
8.96337e-16
9.19223e-16
9.45373e-16
9.66156e-16
3.07543e-16
3.24195e-16
3.51843e-16
3.67619e-16
3.85293e-16
4.00826e-16
4.13982e-16
4.27088e-16
4.40129e-16
4.50863e-16
4.61354e-16
4.71704e-16
4.81403e-16
4.90465e-16
4.99279e-16
5.08071e-16
5.16684e-16
5.2512e-16
5.33546e-16
5.41991e-16
5.50361e-16
5.58811e-16
5.67324e-16
5.75875e-16
5.84387e-16
5.93063e-16
6.01744e-16
6.10472e-16
6.19259e-16
6.27967e-16
6.36817e-16
6.45616e-16
6.54055e-16
6.62562e-16
6.71232e-16
6.79641e-16
6.87908e-16
6.96344e-16
7.04752e-16
7.13182e-16
7.21661e-16
7.30246e-16
7.39089e-16
7.48306e-16
7.57856e-16
7.6785e-16
7.78186e-16
7.89882e-16
8.02326e-16
8.13944e-16
8.28839e-16
8.46626e-16
8.61539e-16
8.71736e-16
9.05162e-16
9.2183e-16
3.53239e-16
3.67703e-16
3.92001e-16
4.04759e-16
4.18578e-16
4.30879e-16
4.43783e-16
4.55443e-16
4.65509e-16
4.75187e-16
4.84507e-16
4.92958e-16
5.01262e-16
5.09274e-16
5.1695e-16
5.24405e-16
5.31656e-16
5.38952e-16
5.46194e-16
5.5324e-16
5.60356e-16
5.67691e-16
5.74826e-16
5.81996e-16
5.89268e-16
5.9656e-16
6.03866e-16
6.11263e-16
6.18653e-16
6.25944e-16
6.33283e-16
6.40577e-16
6.47849e-16
6.55031e-16
6.62169e-16
6.69298e-16
6.76419e-16
6.83571e-16
6.90787e-16
6.98027e-16
7.05324e-16
7.12833e-16
7.20568e-16
7.28412e-16
7.36542e-16
7.45311e-16
7.54521e-16
7.64097e-16
7.74197e-16
7.85967e-16
7.98964e-16
8.08668e-16
8.25694e-16
8.41345e-16
8.61086e-16
8.75844e-16
3.99824e-16
4.11717e-16
4.3045e-16
4.40841e-16
4.52879e-16
4.63368e-16
4.74334e-16
4.83412e-16
4.91342e-16
4.99857e-16
5.07766e-16
5.14745e-16
5.21505e-16
5.28129e-16
5.34414e-16
5.40685e-16
5.46749e-16
5.52693e-16
5.58577e-16
5.64627e-16
5.70449e-16
5.76222e-16
5.82122e-16
5.88097e-16
5.94e-16
5.99939e-16
6.05934e-16
6.11946e-16
6.17921e-16
6.2399e-16
6.29915e-16
6.35802e-16
6.41727e-16
6.47653e-16
6.53491e-16
6.59315e-16
6.65252e-16
6.71149e-16
6.77022e-16
6.82961e-16
6.89022e-16
6.95223e-16
7.01524e-16
7.08062e-16
7.14913e-16
7.22089e-16
7.29407e-16
7.37827e-16
7.46809e-16
7.54973e-16
7.65607e-16
7.7694e-16
7.89008e-16
7.96374e-16
8.17986e-16
8.29443e-16
4.4697e-16
4.56201e-16
4.70216e-16
4.79043e-16
4.88522e-16
4.96421e-16
5.04516e-16
5.11533e-16
5.18472e-16
5.25027e-16
5.30722e-16
5.36488e-16
5.42e-16
5.47097e-16
5.52042e-16
5.56948e-16
5.61763e-16
5.66419e-16
5.7102e-16
5.75591e-16
5.8026e-16
5.84778e-16
5.89399e-16
5.9393e-16
5.98512e-16
6.03138e-16
6.0792e-16
6.12636e-16
6.17352e-16
6.22033e-16
6.26614e-16
6.31255e-16
6.35893e-16
6.40478e-16
6.45076e-16
6.49653e-16
6.5421e-16
6.58772e-16
6.63373e-16
6.68046e-16
6.72786e-16
6.7757e-16
6.82487e-16
6.87679e-16
6.93098e-16
6.98638e-16
7.04627e-16
7.11102e-16
7.17508e-16
7.24695e-16
7.34058e-16
7.40302e-16
7.49547e-16
7.59474e-16
7.73092e-16
7.82069e-16
4.94752e-16
5.01421e-16
5.11605e-16
5.17672e-16
5.2445e-16
5.29896e-16
5.35877e-16
5.41027e-16
5.45923e-16
5.50382e-16
5.54763e-16
5.58604e-16
5.62413e-16
5.66521e-16
5.70227e-16
5.73575e-16
5.76946e-16
5.80334e-16
5.83735e-16
5.86906e-16
5.9023e-16
5.93528e-16
5.96851e-16
6.00168e-16
6.03607e-16
6.06867e-16
6.10024e-16
6.13112e-16
6.16372e-16
6.1975e-16
6.23193e-16
6.26534e-16
6.29772e-16
6.33002e-16
6.36254e-16
6.39613e-16
6.42819e-16
6.46059e-16
6.49389e-16
6.52733e-16
6.56094e-16
6.59585e-16
6.63179e-16
6.67172e-16
6.70981e-16
6.74873e-16
6.7917e-16
6.8349e-16
6.88811e-16
6.93594e-16
6.98727e-16
7.04629e-16
7.13382e-16
7.172e-16
7.27567e-16
7.34333e-16
5.42795e-16
5.46885e-16
5.53114e-16
5.56557e-16
5.6069e-16
5.63889e-16
5.67789e-16
5.70926e-16
5.73547e-16
5.75673e-16
5.80651e-16
5.83247e-16
5.8317e-16
5.86292e-16
5.88359e-16
5.90348e-16
5.92433e-16
5.94448e-16
5.96423e-16
5.98396e-16
6.00279e-16
6.02281e-16
6.04147e-16
6.05986e-16
6.07838e-16
6.09831e-16
6.11917e-16
6.14154e-16
6.16201e-16
6.17989e-16
6.1982e-16
6.21749e-16
6.23693e-16
6.25691e-16
6.27605e-16
6.2943e-16
6.31412e-16
6.33394e-16
6.35332e-16
6.37299e-16
6.39316e-16
6.41339e-16
6.43415e-16
6.4635e-16
6.46377e-16
6.49029e-16
6.53683e-16
6.56152e-16
6.58489e-16
6.60814e-16
6.66687e-16
6.69139e-16
6.71132e-16
6.75283e-16
6.82907e-16
6.8626e-16
5.91152e-16
5.92564e-16
5.94541e-16
5.95866e-16
5.97435e-16
5.98228e-16
5.99762e-16
6.00831e-16
6.0203e-16
6.027e-16
6.04175e-16
6.04555e-16
6.04699e-16
6.06697e-16
6.0666e-16
6.07153e-16
6.07898e-16
6.08477e-16
6.09022e-16
6.09713e-16
6.10359e-16
6.10957e-16
6.11572e-16
6.12298e-16
6.1289e-16
6.13528e-16
6.14032e-16
6.14529e-16
6.15121e-16
6.15811e-16
6.16448e-16
6.17096e-16
6.17668e-16
6.18248e-16
6.18932e-16
6.19449e-16
6.20122e-16
6.20702e-16
6.21261e-16
6.21924e-16
6.22558e-16
6.22908e-16
6.2302e-16
6.24902e-16
6.24981e-16
6.25476e-16
6.26682e-16
6.27197e-16
6.28885e-16
6.30299e-16
6.30549e-16
6.29812e-16
6.35951e-16
6.35746e-16
6.35966e-16
6.37824e-16
6.39508e-16
6.38425e-16
6.36425e-16
6.35207e-16
6.34302e-16
6.32562e-16
6.31821e-16
6.30549e-16
6.29187e-16
6.28764e-16
6.27133e-16
6.26686e-16
6.26625e-16
6.2456e-16
6.24443e-16
6.23988e-16
6.23215e-16
6.2247e-16
6.2182e-16
6.21147e-16
6.20408e-16
6.19621e-16
6.18965e-16
6.1832e-16
6.17615e-16
6.16839e-16
6.16104e-16
6.15218e-16
6.1442e-16
6.13792e-16
6.13118e-16
6.12348e-16
6.11628e-16
6.10831e-16
6.10115e-16
6.09465e-16
6.08691e-16
6.07914e-16
6.07241e-16
6.06489e-16
6.05742e-16
6.05207e-16
6.05099e-16
6.03066e-16
6.0286e-16
6.02335e-16
6.00879e-16
6.00591e-16
5.98696e-16
5.96506e-16
5.97951e-16
5.96422e-16
5.9272e-16
5.89726e-16
5.91734e-16
5.89582e-16
6.87918e-16
6.84507e-16
6.78051e-16
6.74343e-16
6.71111e-16
6.6685e-16
6.63953e-16
6.60629e-16
6.57623e-16
6.55788e-16
6.50833e-16
6.48143e-16
6.48205e-16
6.45041e-16
6.42955e-16
6.4087e-16
6.38697e-16
6.36689e-16
6.34642e-16
6.32511e-16
6.30448e-16
6.28539e-16
6.26366e-16
6.24149e-16
6.2201e-16
6.19953e-16
6.18036e-16
6.16209e-16
6.14145e-16
6.1194e-16
6.09658e-16
6.07577e-16
6.05546e-16
6.03551e-16
6.01355e-16
5.99349e-16
5.97207e-16
5.95226e-16
5.93138e-16
5.9101e-16
5.88832e-16
5.86797e-16
5.84531e-16
5.81396e-16
5.81398e-16
5.78863e-16
5.73694e-16
5.71374e-16
5.69124e-16
5.66588e-16
5.61583e-16
5.55548e-16
5.58215e-16
5.52977e-16
5.44293e-16
5.41043e-16
7.35993e-16
7.29684e-16
7.19435e-16
7.13537e-16
7.07553e-16
7.00717e-16
6.95737e-16
6.90366e-16
6.85334e-16
6.81189e-16
6.7657e-16
6.72623e-16
6.68866e-16
6.64722e-16
6.61087e-16
6.57492e-16
6.54079e-16
6.50601e-16
6.47237e-16
6.43821e-16
6.40516e-16
6.3708e-16
6.33786e-16
6.30491e-16
6.27235e-16
6.23723e-16
6.2015e-16
6.16446e-16
6.13027e-16
6.0961e-16
6.06342e-16
6.02932e-16
5.99503e-16
5.96042e-16
5.92725e-16
5.89307e-16
5.85972e-16
5.82525e-16
5.79117e-16
5.75658e-16
5.72186e-16
5.68602e-16
5.64953e-16
5.60802e-16
5.56959e-16
5.52905e-16
5.48335e-16
5.44607e-16
5.3879e-16
5.32323e-16
5.3001e-16
5.23841e-16
5.13272e-16
5.06134e-16
5.00669e-16
4.93116e-16
7.83907e-16
7.75358e-16
7.60515e-16
7.51977e-16
7.43697e-16
7.34374e-16
7.27094e-16
7.19707e-16
7.12701e-16
7.06514e-16
7.00432e-16
6.94815e-16
6.89361e-16
6.84091e-16
6.79054e-16
6.74198e-16
6.69358e-16
6.64567e-16
6.59851e-16
6.55199e-16
6.50537e-16
6.45758e-16
6.41082e-16
6.36282e-16
6.31536e-16
6.26759e-16
6.22169e-16
6.17366e-16
6.12668e-16
6.07768e-16
6.03056e-16
5.98169e-16
5.93514e-16
5.88695e-16
5.8413e-16
5.79274e-16
5.74679e-16
5.69847e-16
5.65231e-16
5.60346e-16
5.55565e-16
5.50481e-16
5.45608e-16
5.40157e-16
5.34761e-16
5.29285e-16
5.22999e-16
5.16057e-16
5.10435e-16
5.03675e-16
4.93402e-16
4.82714e-16
4.81536e-16
4.71374e-16
4.53131e-16
4.45066e-16
8.31161e-16
8.1952e-16
8.01117e-16
7.89877e-16
7.79176e-16
7.67515e-16
7.57987e-16
7.48575e-16
7.39717e-16
7.31903e-16
7.24051e-16
7.16886e-16
7.09958e-16
7.03498e-16
6.96905e-16
6.90876e-16
6.84469e-16
6.78714e-16
6.72386e-16
6.66723e-16
6.60339e-16
6.54783e-16
6.48393e-16
6.42761e-16
6.36251e-16
6.30606e-16
6.23961e-16
6.18307e-16
6.1162e-16
6.05977e-16
5.99263e-16
5.93675e-16
5.87116e-16
5.81593e-16
5.75005e-16
5.69548e-16
5.63056e-16
5.57522e-16
5.5099e-16
5.45375e-16
5.38743e-16
5.32916e-16
5.26072e-16
5.19746e-16
5.12578e-16
5.0538e-16
4.97456e-16
4.90688e-16
4.80278e-16
4.69132e-16
4.64375e-16
4.53129e-16
4.35557e-16
4.23512e-16
4.11061e-16
3.98063e-16
8.77918e-16
8.63809e-16
8.40593e-16
8.26686e-16
8.13547e-16
7.9922e-16
7.87884e-16
7.76484e-16
7.65869e-16
7.56171e-16
7.47066e-16
7.38223e-16
7.3016e-16
7.22006e-16
7.14402e-16
7.06605e-16
6.99438e-16
6.91894e-16
6.84879e-16
6.77318e-16
6.70354e-16
6.62858e-16
6.55771e-16
6.48238e-16
6.41133e-16
6.335e-16
6.26246e-16
6.18558e-16
6.11238e-16
6.03547e-16
5.96286e-16
5.88729e-16
5.81487e-16
5.73966e-16
5.66788e-16
5.59429e-16
5.52233e-16
5.44919e-16
5.37729e-16
5.30339e-16
5.2295e-16
5.1543e-16
5.07714e-16
4.99631e-16
4.91258e-16
4.82961e-16
4.73595e-16
4.62717e-16
4.53083e-16
4.44942e-16
4.28058e-16
4.1038e-16
4.08012e-16
3.94054e-16
3.64108e-16
3.51043e-16
9.23732e-16
9.0664e-16
8.79023e-16
8.62986e-16
8.47751e-16
8.30378e-16
8.16949e-16
8.03815e-16
7.91432e-16
7.80106e-16
7.69729e-16
7.59285e-16
7.50013e-16
7.40287e-16
7.31979e-16
7.22618e-16
7.14708e-16
7.0521e-16
6.97707e-16
6.88181e-16
6.80849e-16
6.70975e-16
6.63778e-16
6.5373e-16
6.46571e-16
6.36229e-16
6.29124e-16
6.18445e-16
6.11405e-16
6.00674e-16
5.93829e-16
5.83168e-16
5.76502e-16
5.6598e-16
5.5945e-16
5.48721e-16
5.4218e-16
5.31734e-16
5.25065e-16
5.14545e-16
5.0768e-16
4.97006e-16
4.89599e-16
4.78897e-16
4.70941e-16
4.59283e-16
4.49279e-16
4.38226e-16
4.26982e-16
4.08338e-16
3.99767e-16
3.88723e-16
3.62441e-16
3.4203e-16
3.25156e-16
3.05762e-16
9.68476e-16
9.47932e-16
9.17235e-16
8.96291e-16
8.79559e-16
8.60952e-16
8.44643e-16
8.30204e-16
8.16129e-16
8.03829e-16
7.91262e-16
7.80514e-16
7.69267e-16
7.59521e-16
7.48441e-16
7.39343e-16
7.28607e-16
7.20047e-16
7.08996e-16
7.00671e-16
6.89403e-16
6.81261e-16
6.69811e-16
6.61543e-16
6.49877e-16
6.41586e-16
6.29582e-16
6.21141e-16
6.08875e-16
6.00494e-16
5.88253e-16
5.80053e-16
5.68064e-16
5.59956e-16
5.48156e-16
5.40449e-16
5.28998e-16
5.20779e-16
5.09438e-16
5.01381e-16
4.90122e-16
4.81645e-16
4.70195e-16
4.60844e-16
4.48618e-16
4.38247e-16
4.26114e-16
4.13427e-16
3.97949e-16
3.87312e-16
3.70346e-16
3.41768e-16
3.36369e-16
3.19713e-16
2.80031e-16
2.60586e-16
1.01192e-15
9.8815e-16
9.52044e-16
9.29305e-16
9.09263e-16
8.88402e-16
8.70575e-16
8.54372e-16
8.38823e-16
8.25133e-16
8.11629e-16
7.99587e-16
7.86964e-16
7.76154e-16
7.64094e-16
7.54144e-16
7.4191e-16
7.32483e-16
7.20096e-16
7.10988e-16
6.98144e-16
6.89316e-16
6.75873e-16
6.67374e-16
6.53532e-16
6.45174e-16
6.30728e-16
6.223e-16
6.07328e-16
5.99095e-16
5.84008e-16
5.76338e-16
5.61583e-16
5.54195e-16
5.39404e-16
5.32294e-16
5.17314e-16
5.10476e-16
4.96221e-16
4.88935e-16
4.74294e-16
4.66961e-16
4.5247e-16
4.43948e-16
4.29298e-16
4.19879e-16
4.03464e-16
3.91733e-16
3.75524e-16
3.5896e-16
3.38426e-16
3.26173e-16
3.00524e-16
2.70193e-16
2.42429e-16
2.17699e-16
1.05393e-15
1.02801e-15
9.85126e-16
9.62833e-16
9.38443e-16
9.15116e-16
8.96981e-16
8.7824e-16
8.6213e-16
8.46659e-16
8.33304e-16
8.18713e-16
8.07168e-16
7.93325e-16
7.82898e-16
7.68918e-16
7.59275e-16
7.44701e-16
7.35734e-16
7.20335e-16
7.11847e-16
6.95603e-16
6.87467e-16
6.70555e-16
6.62632e-16
6.451e-16
6.37079e-16
6.1876e-16
6.11182e-16
5.92578e-16
5.8563e-16
5.67586e-16
5.61047e-16
5.42882e-16
5.36192e-16
5.17679e-16
5.11322e-16
4.93919e-16
4.86401e-16
4.69159e-16
4.61981e-16
4.44925e-16
4.37034e-16
4.20538e-16
4.11444e-16
3.94405e-16
3.82983e-16
3.65655e-16
3.5156e-16
3.31418e-16
3.15134e-16
2.88296e-16
2.64012e-16
2.50129e-16
2.01032e-16
1.75447e-16
1.09353e-15
1.063e-15
1.01181e-15
9.88895e-16
9.6322e-16
9.38616e-16
9.18795e-16
8.99663e-16
8.8235e-16
8.66563e-16
8.51549e-16
8.37206e-16
8.23799e-16
8.10125e-16
7.97163e-16
7.83804e-16
7.71393e-16
7.57785e-16
7.45436e-16
7.3153e-16
7.19137e-16
7.04941e-16
6.92606e-16
6.77848e-16
6.66099e-16
6.51415e-16
6.38777e-16
6.21979e-16
6.08252e-16
5.91205e-16
5.78255e-16
5.62125e-16
5.50222e-16
5.34733e-16
5.23695e-16
5.08828e-16
4.98004e-16
4.82078e-16
4.71952e-16
4.57705e-16
4.47476e-16
4.3231e-16
4.21408e-16
4.05954e-16
3.94119e-16
3.78024e-16
3.6531e-16
3.47643e-16
3.31312e-16
3.10299e-16
2.93147e-16
2.67659e-16
2.42316e-16
2.15294e-16
1.66861e-16
1.36201e-16
1.13108e-15
1.09693e-15
1.04298e-15
1.01328e-15
9.86624e-16
9.5999e-16
9.37722e-16
9.18979e-16
9.00171e-16
8.84259e-16
8.67787e-16
8.54116e-16
8.38391e-16
8.26207e-16
8.10504e-16
7.99178e-16
7.82777e-16
7.72065e-16
7.54592e-16
7.44457e-16
7.25708e-16
7.1592e-16
6.96222e-16
6.87149e-16
6.68067e-16
6.60931e-16
6.3836e-16
6.27003e-16
6.02241e-16
5.91535e-16
5.6843e-16
5.63896e-16
5.43816e-16
5.36799e-16
5.13957e-16
5.0695e-16
4.84549e-16
4.77987e-16
4.57145e-16
4.48662e-16
4.27482e-16
4.20599e-16
4.00734e-16
3.92236e-16
3.72866e-16
3.62918e-16
3.42458e-16
3.29517e-16
3.08973e-16
2.92354e-16
2.66913e-16
2.41553e-16
2.1715e-16
1.85942e-16
1.332e-16
9.8767e-17
1.16868e-15
1.1272e-15
1.06766e-15
1.03529e-15
1.00813e-15
9.82855e-16
9.60937e-16
9.41143e-16
9.23298e-16
9.06643e-16
8.91009e-16
8.75703e-16
8.61041e-16
8.46248e-16
8.31894e-16
8.17004e-16
8.02417e-16
7.87194e-16
7.72196e-16
7.56317e-16
7.40805e-16
7.24323e-16
7.07612e-16
6.88023e-16
6.69283e-16
6.51584e-16
6.34157e-16
6.19716e-16
6.10385e-16
5.95852e-16
5.78347e-16
5.60016e-16
5.40918e-16
5.21351e-16
5.0493e-16
4.88411e-16
4.7308e-16
4.57165e-16
4.41986e-16
4.27303e-16
4.13166e-16
3.98168e-16
3.83603e-16
3.68942e-16
3.54194e-16
3.38971e-16
3.23272e-16
3.06712e-16
2.88521e-16
2.68918e-16
2.47349e-16
2.21992e-16
1.94047e-16
1.6199e-16
1.02909e-16
6.12329e-17
1.19874e-15
1.13697e-15
1.08342e-15
1.04925e-15
1.02056e-15
9.95642e-16
9.74053e-16
9.54739e-16
9.37107e-16
9.20588e-16
9.04895e-16
8.89625e-16
8.74694e-16
8.5973e-16
8.44816e-16
8.29595e-16
8.1428e-16
7.9849e-16
7.82567e-16
7.66083e-16
7.49508e-16
7.32309e-16
7.15803e-16
7.03278e-16
6.93834e-16
6.81055e-16
6.60855e-16
6.31368e-16
5.98402e-16
5.68947e-16
5.48853e-16
5.3609e-16
5.2669e-16
5.14081e-16
4.97638e-16
4.80328e-16
4.63823e-16
4.47227e-16
4.31338e-16
4.15451e-16
4.00197e-16
3.84826e-16
3.69993e-16
3.54932e-16
3.40055e-16
3.24676e-16
3.09055e-16
2.92454e-16
2.74824e-16
2.55425e-16
2.33915e-16
2.08984e-16
1.80252e-16
1.46123e-16
9.26325e-17
3.09374e-17
)
;

boundaryField
{
    top
    {
        type            zeroGradient;
    }
    bottom
    {
        type            zeroGradient;
    }
    rotatingWall
    {
        type            zeroGradient;
    }
    wall
    {
        type            zeroGradient;
    }
    frontAndBack
    {
        type            empty;
    }
}


// ************************************************************************* //
