/*--------------------------------*- C++ -*----------------------------------*\
| =========                 |                                                 |
| \\      /  F ield         | OpenFOAM: The Open Source CFD Toolbox           |
|  \\    /   O peration     | Version:  5.0                                   |
|   \\  /    A nd           | Web:      www.OpenFOAM.org                      |
|    \\/     M anipulation  |                                                 |
\*---------------------------------------------------------------------------*/
FoamFile
{
    version     2.0;
    format      ascii;
    class       surfaceScalarField;
    location    "2.7";
    object      phi;
}
// * * * * * * * * * * * * * * * * * * * * * * * * * * * * * * * * * * * * * //

dimensions      [0 3 -1 0 0 0 0];

internalField   nonuniform List<scalar> 
40
(
0.0002
1.26259e-11
0.0002
-1.11684e-11
0.0002
1.37217e-11
0.0002
-2.55157e-11
-1.27953e-11
0.000184
1.28376e-12
0.000184
2.92052e-12
0.000184
-2.86866e-12
0.000184
-1.77638e-11
-2.07193e-11
0.000152
-5.24989e-12
0.000152
9.37479e-12
0.000152
-1.14118e-11
0.000152
-1.18384e-11
-1.63902e-11
0.000104
-7.06357e-12
0.000104
9.52973e-12
0.000104
-1.26163e-11
0.000104
-3.19751e-12
-6.70402e-12
4e-05
4e-05
4e-05
4e-05
)
;

boundaryField
{
    top
    {
        type            calculated;
        value           uniform 0;
    }
    bottom
    {
        type            symmetryPlane;
        value           uniform 0;
    }
    inlet
    {
        type            calculated;
        value           nonuniform List<scalar> 5(-0.0002 -0.000184 -0.000152 -0.000104 -4e-05);
    }
    outlet
    {
        type            calculated;
        value           nonuniform 0();
    }
    frontAndBack
    {
        type            empty;
        value           nonuniform 0();
    }
    procBoundary0to1
    {
        type            processor;
        value           nonuniform List<scalar> 5(0.0002 0.000184 0.000152 0.000104 4e-05);
    }
}


// ************************************************************************* //
