/*--------------------------------*- C++ -*----------------------------------*\
| =========                 |                                                 |
| \\      /  F ield         | OpenFOAM: The Open Source CFD Toolbox           |
|  \\    /   O peration     | Version:  5.0                                   |
|   \\  /    A nd           | Web:      www.OpenFOAM.org                      |
|    \\/     M anipulation  |                                                 |
\*---------------------------------------------------------------------------*/
FoamFile
{
    version     2.0;
    format      ascii;
    class       volScalarField;
    location    "0.5";
    object      p;
}
// * * * * * * * * * * * * * * * * * * * * * * * * * * * * * * * * * * * * * //

dimensions      [0 2 -2 0 0 0 0];

internalField   nonuniform List<scalar> 
200
(
0.0190344
0.000446835
-0.00123942
-0.000982393
-0.00211756
0.000151653
-0.00275597
-3.60325e-05
-0.0029074
-0.0419444
0.0160799
0.000429846
-0.00121935
-0.000980533
-0.00211636
0.000146762
-0.00275276
-8.07483e-05
-0.00282341
-0.0363343
0.0129111
0.000410747
-0.00120624
-0.000979157
-0.00211705
0.000146287
-0.00275358
-0.000108157
-0.00274987
-0.030241
0.00978212
0.000400733
-0.00120298
-0.000978348
-0.00211794
0.000147225
-0.00275534
-0.000114198
-0.00271749
-0.0240604
0.00667274
0.000399731
-0.00120729
-0.000977944
-0.0021185
0.000148307
-0.00275698
-0.000104477
-0.00272186
-0.0177742
0.0035546
0.000404824
-0.00121652
-0.000978003
-0.00211885
0.000149706
-0.00275864
-8.40059e-05
-0.00275176
-0.0113701
0.00041002
0.000412843
-0.001228
-0.000978467
-0.00211896
0.000151223
-0.0027602
-5.84666e-05
-0.00279466
-0.00484542
-0.00280383
0.000420184
-0.00123801
-0.000979592
-0.00211866
0.000152688
-0.00276144
-3.52449e-05
-0.00283541
0.00185733
-0.00601782
0.00042993
-0.00124981
-0.000981049
-0.00211866
0.000155325
-0.00276353
-7.75115e-06
-0.00288758
0.00854504
-0.00866661
0.000464321
-0.00128814
-0.000980071
-0.00212151
0.000163519
-0.00277121
7.26122e-05
-0.00304834
0.0139684
-0.00970386
0.000529543
-0.0013635
-0.000974627
-0.00212687
0.000176
-0.00278411
0.000225494
-0.0033473
0.0159498
-0.00936893
0.000574461
-0.0014148
-0.000969022
-0.00212945
0.000182138
-0.00279238
0.000329553
-0.00354313
0.015165
-0.00915356
0.000578198
-0.00142118
-0.000967018
-0.00212809
0.000180651
-0.00279311
0.00034415
-0.00355722
0.0147341
-0.00914422
0.000572899
-0.00141813
-0.000965997
-0.00212613
0.000178423
-0.00279255
0.000339975
-0.00353515
0.0147447
-0.0091695
0.000566661
-0.00141418
-0.000964965
-0.00212426
0.000176601
-0.00279204
0.000333538
-0.00351099
0.0148228
-0.0091879
0.000557795
-0.00140714
-0.000964251
-0.00212239
0.000174843
-0.00279124
0.000320856
-0.00347627
0.014888
-0.00920882
0.000544951
-0.00139595
-0.000963837
-0.00212034
0.000172731
-0.00278989
0.000299452
-0.00342571
0.0149635
-0.00923997
0.000527283
-0.00137977
-0.000963809
-0.00211815
0.000170178
-0.00278785
0.000267729
-0.00335581
0.0150675
-0.00928978
0.000503927
-0.0013566
-0.000964168
-0.00211607
0.000167716
-0.00278579
0.000222049
-0.00326016
0.0152217
-0.00935771
0.000481041
-0.0013303
-0.000964358
-0.00211512
0.000166985
-0.00278558
0.00017067
-0.00315749
0.0154166
)
;

boundaryField
{
    top
    {
        type            zeroGradient;
    }
    bottom
    {
        type            zeroGradient;
    }
    inlet
    {
        type            fixedValue;
        value           nonuniform 0();
    }
    outlet
    {
        type            fixedValue;
        value           uniform 0;
    }
    frontAndBack
    {
        type            empty;
    }
    procBoundary1to0
    {
        type            processor;
        value           nonuniform List<scalar> 
20
(
-0.0198096
-0.0168535
-0.0136839
-0.0105544
-0.00744485
-0.00432693
-0.00118281
0.00203052
0.00524396
0.00789132
0.00892613
0.00858993
0.00837488
0.00836593
0.00839135
0.00840982
0.00843079
0.00846203
0.00851192
0.00857975
)
;
    }
}


// ************************************************************************* //
