/*--------------------------------*- C++ -*----------------------------------*\
| =========                 |                                                 |
| \\      /  F ield         | OpenFOAM: The Open Source CFD Toolbox           |
|  \\    /   O peration     | Version:  5.0                                   |
|   \\  /    A nd           | Web:      www.OpenFOAM.org                      |
|    \\/     M anipulation  |                                                 |
\*---------------------------------------------------------------------------*/
FoamFile
{
    version     2.0;
    format      ascii;
    class       surfaceScalarField;
    location    "0.5";
    object      phi;
}
// * * * * * * * * * * * * * * * * * * * * * * * * * * * * * * * * * * * * * //

dimensions      [0 3 -1 0 0 0 0];

internalField   nonuniform List<scalar> 
40
(
0.000206802
-4.90302e-06
0.000212078
-5.27625e-06
0.000212747
-6.6875e-07
0.000212814
-6.76143e-08
-3.97115e-07
0.000183488
-2.83867e-06
0.000181444
-3.23259e-06
0.000181315
-5.40326e-07
0.000181366
-1.18166e-07
-2.75105e-07
0.000151701
-1.32956e-06
0.000150071
-1.6031e-06
0.000149816
-2.85412e-07
0.000149779
-8.13581e-08
-1.47141e-07
0.000103862
-3.63105e-07
0.000102725
-4.66747e-07
0.000102517
-7.6787e-08
0.00010246
-2.42031e-08
-5.09036e-08
3.99728e-05
3.95061e-05
3.94293e-05
3.94051e-05
)
;

boundaryField
{
    top
    {
        type            calculated;
        value           uniform 0;
    }
    bottom
    {
        type            symmetryPlane;
        value           uniform 0;
    }
    inlet
    {
        type            calculated;
        value           nonuniform 0();
    }
    outlet
    {
        type            calculated;
        value           nonuniform List<scalar> 5(0.000213211 0.000181244 0.000149651 0.000102363 3.93542e-05);
    }
    frontAndBack
    {
        type            empty;
        value           nonuniform 0();
    }
    procBoundary1to0
    {
        type            processor;
        value           nonuniform List<scalar> 5(-0.000201899 -0.000185552 -0.00015321 -0.000104828 -4.03359e-05);
    }
}


// ************************************************************************* //
