/*--------------------------------*- C++ -*----------------------------------*\
| =========                 |                                                 |
| \\      /  F ield         | OpenFOAM: The Open Source CFD Toolbox           |
|  \\    /   O peration     | Version:  5.0                                   |
|   \\  /    A nd           | Web:      www.OpenFOAM.org                      |
|    \\/     M anipulation  |                                                 |
\*---------------------------------------------------------------------------*/
FoamFile
{
    version     2.0;
    format      ascii;
    class       surfaceScalarField;
    location    "0.5";
    object      phi;
}
// * * * * * * * * * * * * * * * * * * * * * * * * * * * * * * * * * * * * * //

dimensions      [0 3 -1 0 0 0 0];

internalField   nonuniform List<scalar> 
370
(
1.09254e-09
1.66317e-17
1.09254e-09
5.23588e-16
1.09254e-09
-5.57466e-17
1.09254e-09
1.59562e-16
1.09254e-09
-8.80094e-17
1.09254e-09
7.39542e-17
1.09254e-09
-5.11931e-17
1.09254e-09
6.4902e-17
1.09254e-09
1.99478e-17
8.59307e-17
1.08594e-09
-6.58578e-16
1.08594e-09
1.55989e-15
1.08594e-09
-4.90057e-16
1.08594e-09
6.01988e-16
1.08594e-09
-3.89616e-16
1.08594e-09
3.08118e-16
1.08594e-09
-2.24422e-16
1.08594e-09
2.32824e-16
1.08594e-09
-4.69965e-17
2.31475e-16
1.07279e-09
-1.31735e-15
1.07279e-09
2.5815e-15
1.07279e-09
-9.22287e-16
1.07279e-09
1.03575e-15
1.07279e-09
-6.85694e-16
1.07279e-09
5.36718e-16
1.07279e-09
-3.96472e-16
1.07279e-09
3.96117e-16
1.07279e-09
-1.00412e-16
3.87185e-16
1.05315e-09
-1.97121e-15
1.05315e-09
3.57858e-15
1.05315e-09
-1.34931e-15
1.05315e-09
1.45487e-15
1.05315e-09
-9.74895e-16
1.05315e-09
7.60497e-16
1.05315e-09
-5.64644e-16
1.05315e-09
5.56724e-16
1.05315e-09
-1.45495e-16
5.447e-16
1.02713e-09
-2.61643e-15
1.02713e-09
4.53342e-15
1.02713e-09
-1.77055e-15
1.02713e-09
1.85609e-15
1.02713e-09
-1.25444e-15
1.02713e-09
9.75766e-16
1.02713e-09
-7.28458e-16
1.02713e-09
7.1079e-16
1.02713e-09
-1.80815e-16
7.04648e-16
9.94877e-10
-3.25695e-15
9.94876e-10
5.42343e-15
9.94877e-10
-2.18235e-15
9.94876e-10
2.23277e-15
9.94877e-10
-1.52092e-15
9.94876e-10
1.1806e-15
9.94877e-10
-8.85488e-16
9.94876e-10
8.56723e-16
9.94876e-10
-2.10995e-16
8.59861e-16
9.56572e-10
-3.88904e-15
9.56571e-10
6.22809e-15
9.56571e-10
-2.58003e-15
9.56571e-10
2.57988e-15
9.56571e-10
-1.77101e-15
9.56571e-10
1.37147e-15
9.56571e-10
-1.03299e-15
9.56571e-10
9.91782e-16
9.56571e-10
-2.39841e-16
1.00435e-15
9.12426e-10
-4.50651e-15
9.12425e-10
6.92475e-15
9.12426e-10
-2.95885e-15
9.12425e-10
2.89095e-15
9.12426e-10
-2e-15
9.12425e-10
1.54535e-15
9.12426e-10
-1.16894e-15
9.12425e-10
1.11261e-15
9.12425e-10
-2.69773e-16
1.1334e-15
8.62685e-10
-5.09843e-15
8.62685e-10
7.49305e-15
8.62685e-10
-3.30997e-15
8.62685e-10
3.15925e-15
8.62685e-10
-2.20313e-15
8.62685e-10
1.69775e-15
8.62685e-10
-1.28951e-15
8.62685e-10
1.21625e-15
8.62685e-10
-3.03999e-16
1.24029e-15
8.07626e-10
-5.64783e-15
8.07626e-10
7.91182e-15
8.07626e-10
-3.62404e-15
8.07626e-10
3.37641e-15
8.07626e-10
-2.37364e-15
8.07626e-10
1.82456e-15
8.07626e-10
-1.39175e-15
8.07626e-10
1.29871e-15
8.07626e-10
-3.43391e-16
1.32028e-15
7.47555e-10
-6.13259e-15
7.47555e-10
8.16114e-15
7.47555e-10
-3.88647e-15
7.47555e-10
3.53362e-15
7.47555e-10
-2.50462e-15
7.47555e-10
1.91969e-15
7.47555e-10
-1.47032e-15
7.47555e-10
1.35647e-15
7.47555e-10
-3.88942e-16
1.36729e-15
6.82805e-10
-6.52223e-15
6.82805e-10
8.21996e-15
6.82806e-10
-4.08132e-15
6.82805e-10
3.61995e-15
6.82806e-10
-2.5867e-15
6.82806e-10
1.97736e-15
6.82806e-10
-1.52074e-15
6.82806e-10
1.38487e-15
6.82806e-10
-4.38482e-16
1.37778e-15
6.13738e-10
-6.77879e-15
6.13738e-10
8.06788e-15
6.13738e-10
-4.18616e-15
6.13738e-10
3.62324e-15
6.13738e-10
-2.60976e-15
6.13738e-10
1.989e-15
6.13738e-10
-1.53556e-15
6.13738e-10
1.37962e-15
6.13739e-10
-4.89021e-16
1.34668e-15
5.40737e-10
-6.85329e-15
5.40737e-10
7.683e-15
5.40737e-10
-4.17607e-15
5.40738e-10
3.52821e-15
5.40737e-10
-2.56061e-15
5.40738e-10
1.94616e-15
5.40738e-10
-1.50792e-15
5.40738e-10
1.33517e-15
5.40738e-10
-5.33871e-16
1.27226e-15
4.64208e-10
-6.68547e-15
4.64209e-10
7.04272e-15
4.64209e-10
-4.01821e-15
4.64209e-10
3.3173e-15
4.64209e-10
-2.42447e-15
4.64209e-10
1.83706e-15
4.64209e-10
-1.42758e-15
4.64209e-10
1.2458e-15
4.64209e-10
-5.64494e-16
1.15123e-15
3.84577e-10
-6.19993e-15
3.84578e-10
6.12449e-15
3.84578e-10
-3.67465e-15
3.84578e-10
2.96788e-15
3.84578e-10
-2.18259e-15
3.84578e-10
1.64943e-15
3.84578e-10
-1.2841e-15
3.84578e-10
1.10489e-15
3.84578e-10
-5.70299e-16
9.80652e-16
3.02288e-10
-5.30376e-15
3.02289e-10
4.90609e-15
3.02289e-10
-3.09817e-15
3.02289e-10
2.4526e-15
3.02289e-10
-1.81333e-15
3.02289e-10
1.36718e-15
3.02289e-10
-1.06466e-15
3.02289e-10
9.04434e-16
3.02289e-10
-5.32039e-16
7.62145e-16
2.17799e-10
-3.88321e-15
2.17801e-10
3.36452e-15
2.178e-10
-2.23462e-15
2.178e-10
1.73797e-15
2.178e-10
-1.29062e-15
2.178e-10
9.71505e-16
2.178e-10
-7.5593e-16
2.178e-10
6.34627e-16
2.178e-10
-4.24459e-16
5.01236e-16
1.31581e-10
-1.79366e-15
1.31583e-10
1.46762e-15
1.31582e-10
-1.01791e-15
1.31583e-10
7.80703e-16
1.31582e-10
-5.81678e-16
1.31583e-10
4.37991e-16
1.31582e-10
-3.39561e-16
1.31583e-10
2.83304e-16
1.31582e-10
-2.11288e-16
2.08335e-16
4.41144e-11
4.41158e-11
4.41148e-11
4.41156e-11
4.4115e-11
4.41155e-11
4.41151e-11
4.41154e-11
4.41152e-11
)
;

boundaryField
{
    top
    {
        type            calculated;
        value           uniform 0;
    }
    bottom
    {
        type            symmetryPlane;
        value           uniform 0;
    }
    inlet
    {
        type            calculated;
        value           nonuniform 0();
    }
    outlet
    {
        type            calculated;
        value           nonuniform List<scalar> 
20
(
1.09254e-09
1.08594e-09
1.07279e-09
1.05315e-09
1.02713e-09
9.94876e-10
9.56571e-10
9.12425e-10
8.62685e-10
8.07626e-10
7.47555e-10
6.82806e-10
6.13739e-10
5.40738e-10
4.64209e-10
3.84578e-10
3.02289e-10
2.178e-10
1.31583e-10
4.41154e-11
)
;
    }
    frontAndBack
    {
        type            empty;
        value           nonuniform 0();
    }
    procBoundary1to0
    {
        type            processor;
        value           nonuniform List<scalar> 
20
(
-1.09254e-09
-1.08594e-09
-1.07279e-09
-1.05315e-09
-1.02713e-09
-9.94877e-10
-9.56571e-10
-9.12425e-10
-8.62685e-10
-8.07625e-10
-7.47554e-10
-6.82805e-10
-6.13738e-10
-5.40737e-10
-4.64208e-10
-3.84578e-10
-3.02289e-10
-2.178e-10
-1.31583e-10
-4.41162e-11
)
;
    }
}


// ************************************************************************* //
