/*--------------------------------*- C++ -*----------------------------------*\
| =========                 |                                                 |
| \\      /  F ield         | OpenFOAM: The Open Source CFD Toolbox           |
|  \\    /   O peration     | Version:  5.0                                   |
|   \\  /    A nd           | Web:      www.OpenFOAM.org                      |
|    \\/     M anipulation  |                                                 |
\*---------------------------------------------------------------------------*/
FoamFile
{
    version     2.0;
    format      ascii;
    class       surfaceScalarField;
    location    "0.5";
    object      phi;
}
// * * * * * * * * * * * * * * * * * * * * * * * * * * * * * * * * * * * * * //

dimensions      [0 3 -1 0 0 0 0];

internalField   nonuniform List<scalar> 
40
(
0.000200003
3.49911e-12
0.000200003
-3.47973e-12
0.000200003
9.83811e-12
0.000200003
-7.36032e-12
-1.76218e-12
0.000184003
-2.79062e-13
0.000184003
1.55658e-12
0.000184003
2.94037e-12
0.000184003
1.50437e-12
3.50809e-13
0.000152002
-2.23836e-12
0.000152002
8.54346e-12
0.000152002
-3.08755e-12
0.000152002
9.42151e-12
3.09618e-12
0.000104001
-2.98181e-12
0.000104001
1.07558e-11
0.000104001
-7.2023e-12
0.000104001
1.19115e-11
3.77504e-12
4.00005e-05
4.00005e-05
4.00005e-05
4.00005e-05
)
;

boundaryField
{
    top
    {
        type            calculated;
        value           uniform 0;
    }
    bottom
    {
        type            symmetryPlane;
        value           uniform 0;
    }
    inlet
    {
        type            calculated;
        value           nonuniform 0();
    }
    outlet
    {
        type            calculated;
        value           nonuniform List<scalar> 5(0.000200003 0.000184003 0.000152002 0.000104002 4.00005e-05);
    }
    frontAndBack
    {
        type            empty;
        value           nonuniform 0();
    }
    procBoundary1to0
    {
        type            processor;
        value           nonuniform List<scalar> 5(-0.000200003 -0.000184003 -0.000152002 -0.000104001 -4.00005e-05);
    }
}


// ************************************************************************* //
