/*--------------------------------*- C++ -*----------------------------------*\
| =========                 |                                                 |
| \\      /  F ield         | OpenFOAM: The Open Source CFD Toolbox           |
|  \\    /   O peration     | Version:  5.0                                   |
|   \\  /    A nd           | Web:      www.OpenFOAM.org                      |
|    \\/     M anipulation  |                                                 |
\*---------------------------------------------------------------------------*/
FoamFile
{
    version     2.0;
    format      ascii;
    class       surfaceScalarField;
    location    "0.5";
    object      phi;
}
// * * * * * * * * * * * * * * * * * * * * * * * * * * * * * * * * * * * * * //

dimensions      [0 3 -1 0 0 0 0];

internalField   nonuniform List<scalar> 
85
(
0.000100749
-4.00397e-19
0.000100749
5.91349e-20
0.000100749
-1.07345e-20
0.000100749
-2.17342e-19
4.08449e-19
0.000100749
-3.1561e-19
0.000100749
7.36382e-20
0.000100749
2.69497e-20
0.000100749
-1.26802e-22
9.40181e-19
0.000100749
-2.24154e-19
0.000100749
-1.38021e-19
0.000100749
1.99188e-20
0.000100749
7.59907e-20
1.3319e-18
0.000100749
-2.10505e-19
0.000100749
-1.652e-19
0.000100749
8.35693e-20
0.000100749
2.72492e-19
1.78472e-18
0.000100749
-3.52912e-19
0.000100749
-3.14915e-19
0.000100749
7.87105e-20
0.000100749
4.42059e-19
2.00025e-18
0.000100749
-3.61777e-19
0.000100749
-4.04791e-19
0.000100749
-3.16905e-20
0.000100749
4.49666e-19
2.37836e-18
0.000100749
-3.84859e-19
0.000100749
-5.24832e-19
0.000100749
3.63624e-20
0.000100749
5.55628e-19
2.62513e-18
0.000100749
-3.95608e-19
0.000100749
-7.24707e-19
0.000100749
2.83846e-21
0.000100749
4.53172e-19
2.98543e-18
0.000100749
-5.12764e-19
0.000100749
-7.31482e-19
0.000100749
6.79393e-20
0.000100749
3.7654e-19
3.17339e-18
0.000100749
0.000100749
0.000100749
0.000100749
)
;

boundaryField
{
    top
    {
        type            calculated;
        value           nonuniform List<scalar> 5(-1.20916e-18 -1.11938e-19 -1.26372e-19 -1.10067e-19 3.6478e-18);
    }
    bottom
    {
        type            symmetryPlane;
        value           uniform 0;
    }
    inlet
    {
        type            calculated;
        value           nonuniform 0();
    }
    outlet
    {
        type            calculated;
        value           nonuniform List<scalar> 10(0.000100749 0.000100749 0.000100749 0.000100749 0.000100749 0.000100749 0.000100749 0.000100749 0.000100749 0.000100749);
    }
    frontAndBack
    {
        type            empty;
        value           nonuniform 0();
    }
    procBoundary1to0
    {
        type            processor;
        value           nonuniform List<scalar> 10(-0.000100749 -0.000100749 -0.000100749 -0.000100749 -0.000100749 -0.000100749 -0.000100749 -0.000100749 -0.000100749 -0.000100749);
    }
}


// ************************************************************************* //
