/*--------------------------------*- C++ -*----------------------------------*\
| =========                 |                                                 |
| \\      /  F ield         | OpenFOAM: The Open Source CFD Toolbox           |
|  \\    /   O peration     | Version:  5.0                                   |
|   \\  /    A nd           | Web:      www.OpenFOAM.org                      |
|    \\/     M anipulation  |                                                 |
\*---------------------------------------------------------------------------*/
FoamFile
{
    version     2.0;
    format      ascii;
    class       surfaceScalarField;
    location    "0.5";
    object      phi;
}
// * * * * * * * * * * * * * * * * * * * * * * * * * * * * * * * * * * * * * //

dimensions      [0 3 -1 0 0 0 0];

internalField   nonuniform List<scalar> 
370
(
5.31115e-08
-4.39585e-09
5.28364e-08
2.75117e-10
5.21548e-08
6.81658e-10
5.2197e-08
-4.22254e-11
5.20401e-08
1.57038e-10
5.23345e-08
-2.94445e-10
5.20527e-08
2.81854e-10
5.35441e-08
-1.49153e-09
5.27499e-08
7.94224e-10
1.07317e-08
4.72695e-07
-2.53154e-08
4.74046e-07
-1.0765e-09
4.69373e-07
5.355e-09
4.69495e-07
-1.64365e-10
4.68911e-07
7.41143e-10
4.70155e-07
-1.53806e-09
4.69078e-07
1.35896e-09
4.78934e-07
-1.1348e-08
4.66151e-07
1.35775e-08
6.54747e-08
8.8889e-07
-4.91387e-08
8.93937e-07
-6.12441e-09
8.86779e-07
1.25139e-08
8.86739e-07
-1.24664e-10
8.86351e-07
1.12894e-09
8.87497e-07
-2.68429e-09
8.86685e-07
2.17183e-09
9.01549e-07
-2.62121e-08
8.74891e-07
4.0235e-08
1.32551e-07
1.30556e-06
-7.23104e-08
1.31237e-06
-1.29332e-08
1.30442e-06
2.04656e-08
1.3043e-06
-5.19345e-12
1.30406e-06
1.3699e-09
1.30504e-06
-3.66297e-09
1.30446e-06
2.75235e-09
1.32083e-06
-4.25793e-08
1.28824e-06
7.28235e-08
2.00418e-07
1.72283e-06
-9.19951e-08
1.72987e-06
-1.99789e-08
1.72249e-06
2.78537e-08
1.72234e-06
1.46298e-10
1.7222e-06
1.5096e-09
1.72298e-06
-4.44789e-09
1.72259e-06
3.14355e-09
1.73772e-06
-5.77084e-08
1.70561e-06
1.04933e-07
2.59848e-07
2.14078e-06
-1.06039e-07
2.14692e-06
-2.61195e-08
2.14112e-06
3.36539e-08
2.14096e-06
3.11826e-10
2.14088e-06
1.58594e-09
2.1415e-06
-5.06932e-09
2.14123e-06
3.416e-09
2.1531e-06
-6.9578e-08
2.12631e-06
1.31722e-07
3.0395e-07
2.55949e-06
-1.13042e-07
2.56398e-06
-3.06099e-08
2.56042e-06
3.72137e-08
2.56026e-06
4.72711e-10
2.56021e-06
1.63415e-09
2.5607e-06
-5.55876e-09
2.56049e-06
3.62837e-09
2.56783e-06
-7.69171e-08
2.54959e-06
1.49961e-07
3.28201e-07
2.97899e-06
-1.12385e-07
2.98149e-06
-3.31179e-08
2.98042e-06
3.82867e-08
2.9803e-06
5.91476e-10
2.98025e-06
1.69161e-09
2.9806e-06
-5.9129e-09
2.98042e-06
3.80956e-09
2.98274e-06
-7.92349e-08
2.97459e-06
1.58104e-07
3.30473e-07
3.3993e-06
-1.04312e-07
3.39987e-06
-3.36898e-08
3.40111e-06
3.70451e-08
3.4011e-06
6.01671e-10
3.401e-06
1.79514e-09
3.40118e-06
-6.09338e-09
3.40102e-06
3.96726e-09
3.39861e-06
-7.68238e-08
3.40047e-06
1.56243e-07
3.11205e-07
3.82146e-06
-9.25607e-08
3.81908e-06
-3.1303e-08
3.82252e-06
3.36048e-08
3.82251e-06
6.05748e-10
3.8227e-06
1.60746e-09
3.82212e-06
-5.51478e-09
3.82259e-06
3.50357e-09
3.81548e-06
-6.97183e-08
3.82878e-06
1.4294e-07
2.7773e-07
3.99098e-06
-8.08635e-08
3.98714e-06
-2.74682e-08
3.99133e-06
2.94185e-08
3.99133e-06
6.04448e-10
3.99169e-06
1.2479e-09
3.99072e-06
-4.53807e-09
3.99149e-06
2.72469e-09
3.98271e-06
-6.09324e-08
4.00052e-06
1.2513e-07
2.42123e-07
4.0969e-06
-6.91422e-08
4.09256e-06
-2.31249e-08
4.09699e-06
2.49851e-08
4.09703e-06
5.62668e-10
4.0974e-06
8.8401e-10
4.09635e-06
-3.49174e-09
4.09714e-06
1.93697e-09
4.08779e-06
-5.15805e-08
4.10717e-06
1.0575e-07
2.05802e-07
4.20279e-06
-5.73426e-08
4.19833e-06
-1.86667e-08
4.20282e-06
2.04948e-08
4.2029e-06
4.83544e-10
4.20321e-06
5.67073e-10
4.20222e-06
-2.49979e-09
4.20292e-06
1.23955e-09
4.19346e-06
-4.2119e-08
4.21321e-06
8.59954e-08
1.69282e-07
4.30876e-06
-4.57357e-08
4.30439e-06
-1.42888e-08
4.3088e-06
1.6077e-08
4.3089e-06
3.9091e-10
4.30916e-06
3.00035e-10
4.30828e-06
-1.61467e-09
4.30886e-06
6.538e-10
4.2996e-06
-3.28516e-08
4.31896e-06
6.66279e-08
1.33581e-07
4.41484e-06
-3.46394e-08
4.41072e-06
-1.01771e-08
4.41493e-06
1.18755e-08
4.41502e-06
2.98729e-10
4.41523e-06
8.72907e-11
4.41449e-06
-8.75921e-10
4.41495e-06
1.94598e-10
4.40619e-06
-2.4093e-08
4.42443e-06
4.83865e-08
9.97758e-08
4.52099e-06
-2.43943e-08
4.51733e-06
-6.51712e-09
4.52116e-06
8.04419e-09
4.52125e-06
2.16862e-10
4.5214e-06
-6.53015e-11
4.52084e-06
-3.15133e-10
4.52116e-06
-1.25838e-10
4.51324e-06
-1.61708e-08
4.52961e-06
3.20122e-08
6.89782e-08
4.62722e-06
-1.53568e-08
4.6242e-06
-3.49852e-09
4.6275e-06
4.74971e-09
4.62756e-06
1.50671e-10
4.62765e-06
-1.51592e-10
4.62729e-06
4.38705e-11
4.62746e-06
-2.96716e-10
4.62072e-06
-9.43107e-09
4.63447e-06
1.82594e-08
4.23253e-08
4.7335e-06
-7.90956e-09
4.73132e-06
-1.31675e-09
4.73389e-06
2.17783e-09
4.73395e-06
9.80173e-11
4.73396e-06
-1.6399e-10
4.73381e-06
1.9036e-10
4.73383e-06
-3.11048e-10
4.72864e-06
-4.24656e-09
4.739e-06
7.90202e-09
2.09898e-08
4.83983e-06
-2.47375e-09
4.83869e-06
-1.73704e-10
4.84032e-06
5.43571e-10
4.84038e-06
4.38829e-11
4.84031e-06
-9.29199e-11
4.84036e-06
1.33387e-10
4.84022e-06
-1.69854e-10
4.837e-06
-1.02496e-09
4.84316e-06
1.73886e-09
6.18986e-09
4.9464e-06
4.94623e-06
4.94677e-06
4.94681e-06
4.94672e-06
4.94685e-06
4.94668e-06
4.94566e-06
4.9474e-06
)
;

boundaryField
{
    top
    {
        type            calculated;
        value           uniform 0;
    }
    bottom
    {
        type            calculated;
        value           uniform 0;
    }
    inlet
    {
        type            calculated;
        value           nonuniform 0();
    }
    outlet
    {
        type            calculated;
        value           nonuniform List<scalar> 
20
(
4.20181e-08
4.11408e-07
8.07815e-07
1.22037e-06
1.64618e-06
2.08221e-06
2.52534e-06
2.97232e-06
3.41974e-06
3.86226e-06
4.03613e-06
4.14349e-06
4.24973e-06
4.35467e-06
4.45824e-06
4.56041e-06
4.66113e-06
4.76033e-06
4.85796e-06
4.95359e-06
)
;
    }
    frontAndBack
    {
        type            empty;
        value           nonuniform 0();
    }
    procBoundary1to0
    {
        type            processor;
        value           nonuniform List<scalar> 
20
(
-4.87157e-08
-4.51775e-07
-8.65066e-07
-1.28239e-06
-1.70314e-06
-2.12674e-06
-2.55249e-06
-2.97964e-06
-3.40737e-06
-3.83322e-06
-4.00268e-06
-4.10862e-06
-4.21459e-06
-4.32037e-06
-4.42593e-06
-4.53124e-06
-4.63626e-06
-4.74095e-06
-4.84527e-06
-4.94887e-06
)
;
    }
}


// ************************************************************************* //
