/*--------------------------------*- C++ -*----------------------------------*\
| =========                 |                                                 |
| \\      /  F ield         | OpenFOAM: The Open Source CFD Toolbox           |
|  \\    /   O peration     | Version:  5.0                                   |
|   \\  /    A nd           | Web:      www.OpenFOAM.org                      |
|    \\/     M anipulation  |                                                 |
\*---------------------------------------------------------------------------*/
FoamFile
{
    version     2.0;
    format      ascii;
    class       volScalarField;
    location    "0.5";
    object      shearRate;
}
// * * * * * * * * * * * * * * * * * * * * * * * * * * * * * * * * * * * * * //

dimensions      [0 0 -1 0 0 0 0];

internalField   nonuniform List<scalar> 
50
(
7.62012e-14
8.19724e-14
1.31936e-13
6.33243e-14
1.68784e-13
9.00335e-14
9.85372e-14
2.39853e-13
6.12373e-14
2.08357e-13
9.30971e-14
1.10681e-13
2.39822e-13
1.22874e-13
1.94748e-13
9.25347e-14
1.35582e-13
2.1795e-13
1.83786e-13
1.79776e-13
9.5495e-14
9.81991e-14
4.91871e-14
6.43051e-14
1.47512e-13
8.938e-14
9.46621e-14
9.00496e-14
8.29369e-14
1.17522e-13
1.56445e-13
1.61424e-13
3.69155e-13
2.48754e-13
4.6824e-13
1.50652e-13
1.45505e-13
3.70185e-13
1.01531e-13
2.55417e-13
7.68121e-14
1.36955e-13
5.64205e-13
8.92826e-14
3.38063e-13
4.15957e-14
1.54525e-13
6.73198e-13
3.51457e-13
6.53742e-13
)
;

boundaryField
{
    top
    {
        type            zeroGradient;
    }
    bottom
    {
        type            symmetryPlane;
    }
    inlet
    {
        type            zeroGradient;
    }
    outlet
    {
        type            zeroGradient;
    }
    frontAndBack
    {
        type            empty;
    }
    procBoundary1to0
    {
        type            processor;
        value           nonuniform List<scalar> 10(1.3376e-13 2.18641e-13 1.96823e-13 1.96374e-13 3.05084e-14 2.77972e-14 3.25892e-13 3.47446e-13 5.42357e-13 4.98981e-13);
    }
}


// ************************************************************************* //
