/*--------------------------------*- C++ -*----------------------------------*\
| =========                 |                                                 |
| \\      /  F ield         | OpenFOAM: The Open Source CFD Toolbox           |
|  \\    /   O peration     | Version:  5.0                                   |
|   \\  /    A nd           | Web:      www.OpenFOAM.org                      |
|    \\/     M anipulation  |                                                 |
\*---------------------------------------------------------------------------*/
FoamFile
{
    version     2.0;
    format      ascii;
    class       volScalarField;
    location    "0.5";
    object      shearRate;
}
// * * * * * * * * * * * * * * * * * * * * * * * * * * * * * * * * * * * * * //

dimensions      [0 0 -1 0 0 0 0];

internalField   nonuniform List<scalar> 
200
(
1.34837e-05
1.34837e-05
1.34837e-05
1.34837e-05
1.34837e-05
1.34837e-05
1.34837e-05
1.34837e-05
1.34837e-05
1.34837e-05
4.03785e-05
4.03782e-05
4.03784e-05
4.03783e-05
4.03784e-05
4.03783e-05
4.03783e-05
4.03783e-05
4.03783e-05
4.03784e-05
6.70505e-05
6.705e-05
6.70503e-05
6.705e-05
6.70502e-05
6.70501e-05
6.70502e-05
6.70501e-05
6.70501e-05
6.70502e-05
9.33508e-05
9.335e-05
9.33505e-05
9.33501e-05
9.33503e-05
9.33501e-05
9.33503e-05
9.33502e-05
9.33502e-05
9.33503e-05
0.000119133
0.000119132
0.000119133
0.000119132
0.000119132
0.000119132
0.000119132
0.000119132
0.000119132
0.000119132
0.000144253
0.000144251
0.000144252
0.000144251
0.000144252
0.000144251
0.000144252
0.000144252
0.000144252
0.000144252
0.00016857
0.000168568
0.000168569
0.000168568
0.000168569
0.000168569
0.000168569
0.000168569
0.000168569
0.000168569
0.00019195
0.000191948
0.000191949
0.000191948
0.000191949
0.000191948
0.000191948
0.000191948
0.000191948
0.000191948
0.000214262
0.000214259
0.000214261
0.00021426
0.00021426
0.00021426
0.00021426
0.00021426
0.00021426
0.00021426
0.000235383
0.000235379
0.000235381
0.00023538
0.000235381
0.00023538
0.000235381
0.00023538
0.00023538
0.00023538
0.000255194
0.00025519
0.000255193
0.000255191
0.000255192
0.000255191
0.000255192
0.000255191
0.000255192
0.000255191
0.000273587
0.000273582
0.000273585
0.000273583
0.000273584
0.000273583
0.000273584
0.000273583
0.000273584
0.000273583
0.000290458
0.000290452
0.000290456
0.000290453
0.000290455
0.000290454
0.000290455
0.000290454
0.000290454
0.000290454
0.000305713
0.000305707
0.000305711
0.000305708
0.00030571
0.000305709
0.00030571
0.000305709
0.00030571
0.000305709
0.000319268
0.000319261
0.000319266
0.000319262
0.000319265
0.000319263
0.000319264
0.000319263
0.000319264
0.000319263
0.000331046
0.000331037
0.000331043
0.000331038
0.000331042
0.000331039
0.000331041
0.00033104
0.000331041
0.00033104
0.000340979
0.000340968
0.000340976
0.00034097
0.000340975
0.000340972
0.000340974
0.000340972
0.000340973
0.000340973
0.000349012
0.000348999
0.000349009
0.000349002
0.000349007
0.000349003
0.000349006
0.000349004
0.000349005
0.000349005
0.000355102
0.000355087
0.000355099
0.00035509
0.000355096
0.000355092
0.000355095
0.000355093
0.000355094
0.000355094
0.000359219
0.000359201
0.000359215
0.000359205
0.000359212
0.000359207
0.000359211
0.000359208
0.00035921
0.00035921
)
;

boundaryField
{
    top
    {
        type            zeroGradient;
    }
    bottom
    {
        type            symmetryPlane;
    }
    inlet
    {
        type            zeroGradient;
    }
    outlet
    {
        type            zeroGradient;
    }
    frontAndBack
    {
        type            empty;
    }
    procBoundary1to0
    {
        type            processor;
        value           nonuniform List<scalar> 
20
(
1.34836e-05
4.03782e-05
6.70499e-05
9.33499e-05
0.000119132
0.000144251
0.000168568
0.000191947
0.000214259
0.000235379
0.00025519
0.000273581
0.000290451
0.000305705
0.000319258
0.000331034
0.000340964
0.000348994
0.000355081
0.000359193
)
;
    }
}


// ************************************************************************* //
