/*--------------------------------*- C++ -*----------------------------------*\
| =========                 |                                                 |
| \\      /  F ield         | OpenFOAM: The Open Source CFD Toolbox           |
|  \\    /   O peration     | Version:  5.0                                   |
|   \\  /    A nd           | Web:      www.OpenFOAM.org                      |
|    \\/     M anipulation  |                                                 |
\*---------------------------------------------------------------------------*/
FoamFile
{
    version     2.0;
    format      ascii;
    class       volScalarField;
    location    "0.5";
    object      shearRate;
}
// * * * * * * * * * * * * * * * * * * * * * * * * * * * * * * * * * * * * * //

dimensions      [0 0 -1 0 0 0 0];

internalField   nonuniform List<scalar> 
200
(
1.01059
1.06363
1.0387
1.03771
1.03856
1.03951
1.03689
1.04124
1.0881
0.924098
1.63111
1.68879
1.66246
1.6611
1.66163
1.66349
1.65993
1.66559
1.71564
1.53408
1.64975
1.67399
1.66403
1.66293
1.66266
1.66463
1.66186
1.66605
1.68537
1.60507
1.66615
1.66384
1.66653
1.66566
1.665
1.6667
1.66459
1.66769
1.66247
1.66491
1.6802
1.65788
1.66979
1.66915
1.66848
1.66968
1.6681
1.67036
1.64661
1.71307
1.69172
1.65566
1.67366
1.67323
1.67277
1.67341
1.6723
1.67386
1.63759
1.74912
1.70061
1.65674
1.67803
1.67781
1.67742
1.6776
1.677
1.67778
1.63504
1.77265
1.70659
1.66077
1.68271
1.68265
1.68205
1.68199
1.68198
1.68186
1.63885
1.7831
1.70936
1.66741
1.6874
1.6875
1.68637
1.68637
1.68704
1.68578
1.64879
1.78
1.19672
1.17174
1.18355
1.18382
1.18268
1.18275
1.18372
1.18181
1.16164
1.23814
0.555055
0.547358
0.550802
0.551154
0.550596
0.550511
0.551337
0.549664
0.544583
0.566768
0.426231
0.423838
0.424613
0.424973
0.424848
0.424512
0.425287
0.423866
0.423029
0.429756
0.425473
0.426294
0.425373
0.425774
0.425998
0.425412
0.426251
0.424867
0.426745
0.424591
0.424672
0.428583
0.426066
0.426512
0.427017
0.426239
0.427166
0.425758
0.430331
0.419421
0.423799
0.430756
0.426691
0.427182
0.427882
0.42695
0.427998
0.426501
0.433856
0.414085
0.422827
0.432838
0.427229
0.427766
0.42859
0.427521
0.428722
0.427089
0.437345
0.408555
0.42175
0.434826
0.427675
0.428259
0.429117
0.427933
0.429326
0.427493
0.440812
0.402799
0.420563
0.436691
0.428029
0.428666
0.42943
0.428185
0.429814
0.427691
0.444288
0.396781
0.419237
0.438409
0.428279
0.428977
0.429512
0.428299
0.430203
0.427678
0.447826
0.390448
0.417737
0.439985
0.428401
0.429176
0.429388
0.428301
0.430498
0.427459
0.451477
0.383736
)
;

boundaryField
{
    top
    {
        type            zeroGradient;
    }
    bottom
    {
        type            zeroGradient;
    }
    inlet
    {
        type            zeroGradient;
    }
    outlet
    {
        type            zeroGradient;
    }
    frontAndBack
    {
        type            empty;
    }
    procBoundary1to0
    {
        type            processor;
        value           nonuniform List<scalar> 
20
(
1.01059
1.63123
1.64993
1.66629
1.68023
1.69163
1.70046
1.70646
1.70936
1.19682
0.555119
0.426239
0.425446
0.424628
0.423748
0.422771
0.421692
0.420514
0.41922
0.417778
)
;
    }
}


// ************************************************************************* //
