/*--------------------------------*- C++ -*----------------------------------*\
| =========                 |                                                 |
| \\      /  F ield         | OpenFOAM: The Open Source CFD Toolbox           |
|  \\    /   O peration     | Version:  5.0                                   |
|   \\  /    A nd           | Web:      www.OpenFOAM.org                      |
|    \\/     M anipulation  |                                                 |
\*---------------------------------------------------------------------------*/
FoamFile
{
    version     2.0;
    format      ascii;
    class       volVectorField;
    location    "0.5";
    object      U;
}
// * * * * * * * * * * * * * * * * * * * * * * * * * * * * * * * * * * * * * //

dimensions      [0 1 -1 0 0 0 0];

internalField   nonuniform List<vector> 
50
(
(1.00749 -2.31454e-16 -8.62357e-37)
(1.00749 1.80908e-17 -6.96353e-37)
(1.00749 -3.54666e-17 3.60824e-36)
(1.00749 -1.00329e-16 -2.87452e-36)
(1.00749 2.23135e-16 6.19744e-38)
(1.00749 -3.3507e-16 -1.45535e-36)
(1.00749 6.44774e-17 1.81692e-36)
(1.00749 -1.34421e-17 -3.6629e-36)
(1.00749 -1.15185e-16 1.81692e-36)
(1.00749 6.9529e-16 5.95647e-36)
(1.00749 -2.86533e-16 1.23568e-35)
(1.00749 -2.61503e-17 -7.85634e-36)
(1.00749 4.26044e-17 5.44166e-36)
(1.00749 4.36638e-17 -9.08458e-36)
(1.00749 1.15386e-15 -6.12887e-36)
(1.00749 -2.07117e-16 1.74351e-35)
(1.00749 -1.21132e-16 -1.14974e-35)
(1.00749 5.8054e-17 3.63383e-36)
(1.00749 1.70349e-16 4.37877e-37)
(1.00749 1.51882e-15 -1.09271e-35)
(1.00749 -2.86388e-16 -7.44935e-37)
(1.00749 -2.08948e-16 -6.03216e-37)
(1.00749 6.15029e-17 -3.63383e-36)
(1.00749 3.57916e-16 0)
(1.00749 1.89134e-15 0)
(1.00749 -4.17869e-16 -1.23981e-48)
(1.00749 -3.32851e-16 3.27045e-35)
(1.00749 -2.165e-18 -3.63383e-36)
(1.00749 4.37191e-16 0)
(1.00749 2.22584e-15 0)
(1.00749 -2.96664e-16 2.219e-35)
(1.00749 -5.51398e-16 4.05899e-35)
(1.00749 2.22799e-17 -5.3599e-36)
(1.00749 5.67773e-16 -1.90994e-35)
(1.00749 2.4747e-15 0)
(1.00749 -4.50507e-16 6.17751e-35)
(1.00749 -6.15751e-16 -2.59964e-35)
(1.00749 -4.04005e-18 1.46025e-35)
(1.00749 4.87276e-16 -2.22826e-35)
(1.00749 2.87459e-15 -1.09756e-36)
(1.00749 -5.74419e-16 -2.90706e-35)
(1.00749 -5.83807e-16 -2.72537e-35)
(1.00749 -9.05333e-18 -7.26766e-36)
(1.00749 2.68426e-16 4.96018e-37)
(1.00749 3.22677e-15 -2.11123e-35)
(1.00749 -9.32651e-16 -1.4558e-35)
(1.00749 -3.84188e-16 2.46244e-36)
(1.00749 -2.33963e-17 -1.37566e-35)
(1.00749 7.22075e-17 -2.87858e-36)
(1.00749 3.47723e-15 -1.32698e-35)
)
;

boundaryField
{
    top
    {
        type            zeroGradient;
    }
    bottom
    {
        type            symmetryPlane;
    }
    inlet
    {
        type            pressureInletVelocity;
        value           nonuniform 0();
    }
    outlet
    {
        type            inletOutlet;
        inletValue      uniform (1 0 0);
        value           nonuniform List<vector> 10((1.00749 2.23135e-16 6.19744e-38) (1.00749 6.9529e-16 5.95647e-36) (1.00749 1.15386e-15 -6.12887e-36) (1.00749 1.51882e-15 -1.09271e-35) (1.00749 1.89134e-15 0) (1.00749 2.22584e-15 0) (1.00749 2.4747e-15 0) (1.00749 2.87459e-15 -1.09756e-36) (1.00749 3.22677e-15 -2.11123e-35) (1.00749 3.47723e-15 -1.32698e-35));
    }
    frontAndBack
    {
        type            empty;
    }
    procBoundary1to0
    {
        type            processor;
        value           nonuniform List<vector> 10((1.00749 -6.12516e-17 -1.43726e-36) (1.00749 -2.46693e-16 1.91503e-36) (1.00749 -2.67975e-16 3.81189e-36) (1.00749 -3.1816e-16 -3.78282e-36) (1.00749 -3.76263e-16 -3.75011e-36) (1.00749 -4.05156e-16 1.85689e-36) (1.00749 -3.87785e-16 1.81692e-36) (1.00749 -2.55844e-16 -5.44529e-36) (1.00749 -2.92457e-16 1.81692e-36) (1.00749 -2.70696e-16 2.29277e-36));
    }
}


// ************************************************************************* //
