/*--------------------------------*- C++ -*----------------------------------*\
| =========                 |                                                 |
| \\      /  F ield         | OpenFOAM: The Open Source CFD Toolbox           |
|  \\    /   O peration     | Version:  5.0                                   |
|   \\  /    A nd           | Web:      www.OpenFOAM.org                      |
|    \\/     M anipulation  |                                                 |
\*---------------------------------------------------------------------------*/
FoamFile
{
    version     2.0;
    format      ascii;
    class       volVectorField;
    location    "0.5";
    object      U;
}
// * * * * * * * * * * * * * * * * * * * * * * * * * * * * * * * * * * * * * //

dimensions      [0 1 -1 0 0 0 0];

internalField   nonuniform List<vector> 
200
(
(0.00100598 -1.59873e-05 1.87561e-24)
(0.00107721 8.43901e-08 0)
(0.00104454 -3.49051e-07 0)
(0.00104355 1.09388e-07 0)
(0.00104165 -2.11219e-08 0)
(0.0010447 -2.74749e-08 -3.02971e-27)
(0.00104271 8.58932e-09 2.03603e-27)
(0.00104561 5.39341e-07 7.75858e-44)
(0.00111312 -7.66747e-07 1.15662e-45)
(0.000885847 2.79638e-05 1.02229e-26)
(0.00915545 -2.58945e-05 8.88615e-27)
(0.00959607 3.14277e-07 1.39789e-25)
(0.00939565 2.35014e-06 0)
(0.00938817 -1.4745e-07 0)
(0.00937931 4.443e-07 2.67104e-27)
(0.00939819 -8.42993e-07 4.42186e-26)
(0.0093818 7.94408e-07 9.97229e-27)
(0.00940843 -5.0217e-06 3.63881e-29)
(0.00981198 4.0816e-06 6.49085e-25)
(0.00840463 5.2696e-05 3.84431e-26)
(0.0173972 -3.72277e-05 -7.24666e-27)
(0.0180335 -3.01862e-06 1.19963e-25)
(0.0177462 8.498e-06 -6.81736e-26)
(0.0177337 -1.71052e-07 -9.47113e-27)
(0.0177236 9.53744e-07 5.33486e-27)
(0.0177515 -2.08869e-06 -3.48628e-27)
(0.0177222 1.77486e-06 1.03645e-26)
(0.0177719 -1.78764e-05 2.75656e-25)
(0.0183387 2.45983e-05 4.36437e-25)
(0.0163026 9.78638e-05 -1.01265e-22)
(0.0257205 -6.00373e-05 5.13131e-23)
(0.0264082 -9.22694e-06 -4.53902e-26)
(0.0261012 1.64125e-05 8.65227e-27)
(0.0260843 -8.33357e-08 -4.99977e-27)
(0.0260754 1.2783e-06 1.7866e-26)
(0.0261081 -3.21944e-06 8.32369e-27)
(0.0260673 2.51663e-06 1.41351e-26)
(0.0261376 -3.4268e-05 -3.0302e-26)
(0.0267289 5.56507e-05 -2.30875e-25)
(0.0245229 0.000166317 -1.02906e-22)
(0.0341129 -8.31702e-05 2.56148e-23)
(0.0347374 -1.64938e-05 1.68596e-26)
(0.0344643 2.43874e-05 7.09586e-28)
(0.0344439 7.5289e-08 -2.34094e-42)
(0.0344372 1.46735e-06 -3.76193e-27)
(0.0344717 -4.11464e-06 -1.05531e-26)
(0.0344213 2.99591e-06 1.30199e-28)
(0.034509 -5.06406e-05 1.24387e-25)
(0.0350174 8.94375e-05 1.41203e-25)
(0.0330077 0.000233903 1.04697e-22)
(0.042562 -9.99387e-05 -7.72762e-23)
(0.0430375 -2.3306e-05 -5.64842e-26)
(0.0428383 3.11867e-05 -1.6998e-25)
(0.0428155 2.14916e-07 1.68977e-27)
(0.0428105 1.55012e-06 -6.27798e-27)
(0.0428459 -4.7716e-06 1.23437e-26)
(0.0427879 3.28478e-06 1.3184e-26)
(0.0428882 -6.44929e-05 3.79173e-25)
(0.0432371 0.000119803 -3.05786e-25)
(0.0416963 0.000285655 5.33435e-23)
(0.0510541 -0.000110008 -7.84604e-23)
(0.0513251 -2.87535e-05 -6.24483e-26)
(0.051225 3.59354e-05 -8.7855e-26)
(0.0512008 4.21199e-07 -7.00853e-27)
(0.0511972 1.61386e-06 1.16372e-27)
(0.0512324 -5.35828e-06 1.32755e-26)
(0.0511693 3.53573e-06 1.1416e-38)
(0.0512775 -7.4295e-05 -1.77462e-29)
(0.0514201 0.000142886 -3.42189e-25)
(0.0505262 0.000319369 -1.09123e-22)
(0.059574 -0.000119517 7.9317e-23)
(0.0596172 -3.26198e-05 -7.1213e-26)
(0.0596253 3.86562e-05 1.79046e-25)
(0.0596006 5.06182e-07 -2.12857e-26)
(0.0595991 1.6888e-06 -3.05463e-27)
(0.0596319 -5.81899e-06 -3.34785e-26)
(0.0595657 3.77893e-06 6.95391e-39)
(0.0596786 -7.98678e-05 -2.0901e-25)
(0.0595982 0.000157713 -3.83849e-25)
(0.0594324 0.000346672 -5.52311e-23)
(0.0681055 -0.000133239 2.47511e-27)
(0.0679302 -3.47238e-05 1.81866e-25)
(0.0680391 3.91504e-05 -1.45348e-27)
(0.0680145 5.36688e-07 3.49777e-27)
(0.0680172 1.82215e-06 -1.28886e-26)
(0.0680439 -6.22404e-06 4.49628e-26)
(0.0679767 4.07449e-06 -4.0354e-26)
(0.0680921 -8.10228e-05 4.44296e-25)
(0.0678024 0.000163336 8.72968e-25)
(0.0683473 0.000376369 4.99704e-23)
(0.0766309 -9.38766e-05 -8.86161e-24)
(0.0762796 -3.23279e-05 -2.21907e-27)
(0.0764649 3.46932e-05 -2.72658e-25)
(0.0764411 6.63001e-07 -2.50633e-28)
(0.0764524 1.70016e-06 6.87868e-28)
(0.0764679 -5.81621e-06 1.95399e-28)
(0.0764015 3.73695e-06 8.38415e-40)
(0.0765186 -7.21042e-05 -5.61103e-25)
(0.0760633 0.000147772 -4.17916e-27)
(0.0772024 0.000282767 1.28514e-37)
(0.080035 -6.68579e-05 2.76056e-24)
(0.0796356 -2.90915e-05 2.91131e-37)
(0.0798392 3.10956e-05 1.65457e-25)
(0.0798171 6.73728e-07 1.44769e-26)
(0.0798323 1.40087e-06 1.00375e-26)
(0.079842 -4.99487e-06 -2.42864e-26)
(0.079778 3.05196e-06 2.95677e-40)
(0.0798913 -6.45248e-05 -3.36832e-25)
(0.0793944 0.000132601 -8.98972e-38)
(0.0806963 0.000217945 1.5798e-24)
(0.0821589 -7.24012e-05 5.86745e-25)
(0.081742 -2.56417e-05 5.3034e-26)
(0.0819514 2.75494e-05 -6.1404e-26)
(0.0819309 5.82015e-07 -1.63513e-26)
(0.0819473 1.08794e-06 -1.30235e-27)
(0.0819541 -4.08265e-06 4.96812e-27)
(0.0818929 2.37379e-06 1.59966e-40)
(0.0820008 -5.69709e-05 2.53592e-25)
(0.0814923 0.000116971 2.26209e-25)
(0.0828494 0.000219512 -1.30387e-24)
(0.0842785 -6.48057e-05 4.8006e-25)
(0.0838572 -2.10089e-05 1.66837e-27)
(0.084067 2.28637e-05 -3.34654e-27)
(0.0840483 5.10226e-07 -3.23063e-27)
(0.0840644 7.22013e-07 1.5324e-28)
(0.0840696 -2.98625e-06 -3.79024e-27)
(0.0840122 1.57792e-06 3.83253e-28)
(0.0841128 -4.70716e-05 1.10299e-26)
(0.0836073 9.63447e-05 -1.92138e-27)
(0.0849748 0.000190994 -1.31122e-37)
(0.0863939 -5.20162e-05 -2.26223e-42)
(0.0859809 -1.64255e-05 -2.46459e-26)
(0.0861857 1.82322e-05 -7.26355e-27)
(0.086169 4.44444e-07 6.57689e-27)
(0.0861837 4.20453e-07 -3.7839e-27)
(0.0861883 -2.02768e-06 -4.14854e-27)
(0.0861358 9.17689e-07 2.29082e-27)
(0.0862269 -3.73723e-05 1.12361e-26)
(0.0857387 7.60706e-05 4.93771e-26)
(0.0870734 0.000152241 -3.6271e-27)
(0.0885046 -3.99725e-05 -2.08954e-27)
(0.0881131 -1.2131e-05 -1.71697e-26)
(0.0883071 1.38943e-05 -7.2632e-39)
(0.0882925 3.41483e-07 -1.0137e-38)
(0.088305 1.7864e-07 -1.52425e-28)
(0.0883097 -1.1974e-06 -8.91635e-29)
(0.088263 3.85879e-07 2.78234e-27)
(0.0883432 -2.82812e-05 -3.41332e-39)
(0.0878863 5.70796e-05 -6.909e-38)
(0.0891448 0.000115923 3.65013e-27)
(0.0906102 -2.91892e-05 4.09572e-26)
(0.0902539 -8.20636e-06 2.31907e-26)
(0.0904306 9.8437e-06 1.98816e-26)
(0.0904185 2.55795e-07 -2.41121e-27)
(0.0904282 -6.32058e-09 4.49417e-27)
(0.0904332 -5.49291e-07 0)
(0.0903933 -9.02655e-11 -2.29687e-27)
(0.0904611 -1.9874e-05 -3.63186e-26)
(0.0900502 3.96277e-05 -9.10998e-26)
(0.0911881 8.33384e-05 -3.67064e-27)
(0.0927099 -1.95032e-05 -1.05294e-27)
(0.0924033 -4.81733e-06 3.36354e-26)
(0.092556 6.234e-06 -2.90302e-26)
(0.0925464 1.79021e-07 4.723e-28)
(0.0925529 -1.23722e-07 -4.37303e-27)
(0.0925584 -7.98755e-08 5.07222e-27)
(0.0925262 -2.53107e-07 -2.60478e-40)
(0.0925802 -1.24477e-05 5.67493e-26)
(0.0922305 2.4353e-05 1.26708e-25)
(0.0932024 5.439e-05 -6.66813e-38)
(0.094803 -1.11054e-05 -3.76185e-38)
(0.0945615 -2.16893e-06 4.27714e-26)
(0.0946826 3.24058e-06 -6.84571e-39)
(0.0946756 1.22231e-07 0)
(0.0946791 -1.76525e-07 6.32566e-43)
(0.0946846 1.61051e-07 -8.94204e-29)
(0.0946608 -3.32345e-07 -4.38058e-27)
(0.0947001 -6.36906e-06 -1.80607e-39)
(0.0944276 1.20858e-05 1.97611e-27)
(0.0951865 2.99919e-05 -6.62852e-38)
(0.0968887 -4.72069e-06 1.25762e-25)
(0.096729 -5.41309e-07 1.05926e-27)
(0.0968099 1.16348e-06 -7.24285e-39)
(0.0968055 6.67435e-08 4.61567e-43)
(0.0968065 -1.38609e-07 1.51132e-28)
(0.0968112 1.9935e-07 -3.23244e-27)
(0.0967964 -2.66262e-07 -4.86819e-27)
(0.0968202 -2.22699e-06 -2.07417e-25)
(0.0966421 3.95212e-06 -2.13846e-25)
(0.0971389 1.21034e-05 -3.73307e-25)
(0.0989661 -1.20493e-06 0)
(0.0989063 -5.29021e-08 0)
(0.098937 2.53465e-07 -1.25471e-26)
(0.0989354 2.12095e-08 0)
(0.0989351 -5.06902e-08 -3.52339e-28)
(0.0989373 8.05576e-08 5.99762e-29)
(0.0989322 -9.40852e-08 3.29631e-31)
(0.0989402 -4.6277e-07 -2.45461e-26)
(0.0988744 7.49352e-07 -2.72767e-27)
(0.099058 2.94709e-06 0)
)
;

boundaryField
{
    top
    {
        type            fixedValue;
        value           uniform (0.1 0 0);
    }
    bottom
    {
        type            fixedValue;
        value           uniform (0 0 0);
    }
    inlet
    {
        type            zeroGradient;
    }
    outlet
    {
        type            zeroGradient;
    }
    frontAndBack
    {
        type            empty;
    }
    procBoundary1to0
    {
        type            processor;
        value           nonuniform List<vector> 
20
(
(0.00100666 1.59919e-05 0)
(0.00915912 2.60361e-05 1.73165e-26)
(0.0174019 3.76608e-05 -2.59023e-23)
(0.025725 6.08173e-05 -2.56674e-23)
(0.0341163 8.42593e-05 -7.61245e-27)
(0.0425643 0.000101295 2.57545e-23)
(0.0510552 0.000111585 1.18546e-27)
(0.0595736 0.000121258 -2.64343e-23)
(0.0681031 0.000135081 5.40759e-27)
(0.0766254 9.55677e-05 -8.85242e-24)
(0.0800282 6.83397e-05 1.52793e-38)
(0.0821516 7.36534e-05 -5.87695e-25)
(0.0842713 6.57703e-05 -2.51226e-42)
(0.0863873 5.2713e-05 2.39853e-42)
(0.0884989 4.04306e-05 -1.10461e-27)
(0.0906056 2.94554e-05 -2.38835e-42)
(0.0927066 1.962e-05 1.11261e-27)
(0.0948011 1.11378e-05 9.76645e-42)
(0.0968879 4.71147e-06 1.12879e-27)
(0.098966 1.19722e-06 7.64392e-28)
)
;
    }
}


// ************************************************************************* //
