/*--------------------------------*- C++ -*----------------------------------*\
| =========                 |                                                 |
| \\      /  F ield         | OpenFOAM: The Open Source CFD Toolbox           |
|  \\    /   O peration     | Version:  5.0                                   |
|   \\  /    A nd           | Web:      www.OpenFOAM.org                      |
|    \\/     M anipulation  |                                                 |
\*---------------------------------------------------------------------------*/
FoamFile
{
    version     2.0;
    format      ascii;
    class       surfaceScalarField;
    location    "282";
    object      phi;
}
// * * * * * * * * * * * * * * * * * * * * * * * * * * * * * * * * * * * * * //

dimensions      [0 3 -1 0 0 0 0];

internalField   nonuniform List<scalar> 
3052
(
9.77258e-23
-1.36345e-22
3.81315e-22
-2.84397e-22
8.97286e-22
-5.18697e-22
1.50045e-21
-6.06109e-22
2.18775e-21
-6.8995e-22
2.98424e-21
-7.98666e-22
3.84002e-21
-8.57605e-22
4.74202e-21
-9.0365e-22
5.68541e-21
-9.44884e-22
6.65385e-21
-9.69818e-22
7.63326e-21
-9.807e-22
8.61425e-21
-9.82205e-22
9.58702e-21
-9.73932e-22
1.0541e-20
-9.55129e-22
1.14675e-20
-9.27562e-22
1.23585e-20
-8.92026e-22
1.3206e-20
-8.48471e-22
1.40033e-20
-7.98228e-22
1.47439e-20
-7.41388e-22
1.54222e-20
-6.79137e-22
1.60329e-20
-6.11389e-22
1.6572e-20
-5.3972e-22
1.70352e-20
-4.63637e-22
1.74179e-20
-3.83142e-22
1.77194e-20
-3.01765e-22
1.79403e-20
-2.21203e-22
1.80737e-20
-1.33581e-22
1.8118e-20
-4.42866e-23
1.80728e-20
4.52229e-23
1.7939e-20
1.34032e-22
1.77176e-20
2.21709e-22
1.7416e-20
3.02183e-22
1.70327e-20
3.8394e-22
1.65699e-20
4.63608e-22
1.60311e-20
5.39674e-22
1.54215e-20
6.10577e-22
1.47436e-20
6.78989e-22
1.40044e-20
7.4023e-22
1.32082e-20
7.97332e-22
1.23618e-20
8.4739e-22
1.1472e-20
8.90885e-22
1.05475e-20
9.25594e-22
9.59498e-21
9.53522e-22
8.62452e-21
9.71529e-22
7.64519e-21
9.80455e-22
6.66807e-21
9.78309e-22
5.7036e-21
9.65659e-22
4.76426e-21
9.40633e-22
3.86224e-21
9.03432e-22
3.01168e-21
8.5176e-22
2.22791e-21
7.85106e-22
1.5286e-21
7.00896e-22
9.31356e-22
5.98452e-22
4.51509e-22
4.81271e-22
1.35819e-22
3.16845e-22
1.35972e-22
1.4395e-22
-2.80613e-22
4.29403e-22
-5.77187e-22
8.184e-22
-9.16334e-22
1.36238e-21
-1.15847e-21
2.03027e-21
-1.36501e-21
2.75159e-21
-1.52613e-21
3.54037e-21
-1.65172e-21
4.38491e-21
-1.75291e-21
5.26112e-21
-1.82538e-21
6.15933e-21
-1.87201e-21
7.07125e-21
-1.89633e-21
7.98498e-21
-1.89943e-21
8.88968e-21
-1.88198e-21
9.77724e-21
-1.8459e-21
1.06395e-20
-1.79291e-21
1.14683e-20
-1.72372e-21
1.22569e-20
-1.63974e-21
1.29985e-20
-1.54243e-21
1.36875e-20
-1.43267e-21
1.43182e-20
-1.31185e-21
1.4886e-20
-1.18102e-21
1.53864e-20
-1.04164e-21
1.5816e-20
-8.94507e-22
1.61731e-20
-7.41259e-22
1.64562e-20
-5.8568e-22
1.66609e-20
-4.26357e-22
1.67858e-20
-2.58718e-22
1.68277e-20
-8.60786e-23
1.67857e-20
8.76553e-23
1.66601e-20
2.60442e-22
1.64548e-20
4.28329e-22
1.61713e-20
5.87299e-22
1.58146e-20
7.42731e-22
1.53852e-20
8.95428e-22
1.48849e-20
1.04253e-21
1.43172e-20
1.18115e-21
1.36874e-20
1.31178e-21
1.29989e-20
1.43178e-21
1.22581e-20
1.54115e-21
1.14708e-20
1.63775e-21
1.06433e-20
1.7214e-21
9.78204e-21
1.78995e-21
8.89584e-21
1.84284e-21
7.99254e-21
1.87809e-21
7.08126e-21
1.89516e-21
6.17113e-21
1.89193e-21
5.27311e-21
1.86747e-21
4.39812e-21
1.81965e-21
3.55831e-21
1.74692e-21
2.76757e-21
1.64678e-21
2.03877e-21
1.51832e-21
1.38722e-21
1.3561e-21
8.35022e-22
1.15523e-21
4.08254e-22
9.11522e-22
1.178e-22
6.10873e-22
2.53957e-22
6.58798e-23
-3.48463e-22
3.42249e-22
-8.58198e-22
7.28469e-22
-1.30818e-21
1.23476e-21
-1.67039e-21
1.82379e-21
-1.95925e-21
2.49539e-21
-2.20222e-21
3.22885e-21
-2.38901e-21
4.00702e-21
-2.53445e-21
4.81852e-21
-2.63987e-21
5.65236e-21
-2.70851e-21
6.49717e-21
-2.7436e-21
7.34276e-21
-2.74733e-21
8.1812e-21
-2.72257e-21
9.00382e-21
-2.67055e-21
9.80241e-21
-2.59338e-21
1.057e-20
-2.49308e-21
1.13004e-20
-2.3717e-21
1.1987e-20
-2.23048e-21
1.26248e-20
-2.07167e-21
1.32086e-20
-1.89681e-21
1.37344e-20
-1.70775e-21
1.41979e-20
-1.50595e-21
1.45963e-20
-1.29356e-21
1.49271e-20
-1.07248e-21
1.51866e-20
-8.45571e-22
1.5372e-20
-6.11951e-22
1.54839e-20
-3.70554e-22
1.55212e-20
-1.23168e-22
1.54833e-20
1.25911e-22
1.53712e-20
3.7311e-22
1.51858e-20
6.14456e-22
1.49261e-20
8.47953e-22
1.45952e-20
1.07479e-21
1.41966e-20
1.29523e-21
1.37335e-20
1.50703e-21
1.32081e-20
1.70814e-21
1.26248e-20
1.89668e-21
1.19876e-20
2.07072e-21
1.13017e-20
2.22881e-21
1.05721e-20
2.36925e-21
9.80548e-21
2.48991e-21
9.00803e-21
2.5894e-21
8.18703e-21
2.66596e-21
7.34969e-21
2.71765e-21
6.50505e-21
2.74216e-21
5.66172e-21
2.73786e-21
4.82955e-21
2.7023e-21
4.01908e-21
2.63283e-21
3.24184e-21
2.52755e-21
2.50882e-21
2.38272e-21
1.83742e-21
2.19258e-21
1.24233e-21
1.95515e-21
7.36641e-22
1.66352e-21
3.44822e-22
1.3074e-21
9.15095e-23
8.66383e-22
3.45613e-22
7.46559e-23
-4.23406e-22
3.0519e-22
-1.09095e-21
6.44029e-22
-1.65003e-21
1.09536e-21
-2.12509e-21
1.64122e-21
-2.50829e-21
2.25168e-21
-2.81553e-21
2.92183e-21
-3.0616e-21
3.63629e-21
-3.25093e-21
4.38134e-21
-3.3866e-21
5.14697e-21
-3.47562e-21
5.92409e-21
-3.52204e-21
6.70281e-21
-3.52724e-21
7.47396e-21
-3.49478e-21
8.23042e-21
-3.42793e-21
8.9651e-21
-3.32886e-21
9.67139e-21
-3.20005e-21
1.0343e-20
-3.04384e-21
1.09747e-20
-2.86265e-21
1.15613e-20
-2.65869e-21
1.20984e-20
-2.43417e-21
1.25818e-20
-2.19133e-21
1.30081e-20
-1.93247e-21
1.33743e-20
-1.65988e-21
1.36776e-20
-1.37583e-21
1.39147e-20
-1.08267e-21
1.40838e-20
-7.81037e-22
1.4185e-20
-4.7163e-22
1.42188e-20
-1.56718e-22
1.41851e-20
1.5982e-22
1.40836e-20
4.74858e-22
1.39141e-20
7.84182e-22
1.36766e-20
1.08559e-21
1.33734e-20
1.37819e-21
1.30071e-20
1.66182e-21
1.25807e-20
1.9337e-21
1.20973e-20
2.19195e-21
1.15606e-20
2.43381e-21
1.09743e-20
2.65756e-21
1.03432e-20
2.86052e-21
9.67244e-21
3.04081e-21
8.96709e-21
3.19618e-21
8.23317e-21
3.32438e-21
7.47758e-21
3.4227e-21
6.70744e-21
3.48909e-21
5.93023e-21
3.52084e-21
5.1544e-21
3.51521e-21
4.38927e-21
3.46918e-21
3.6443e-21
3.37994e-21
2.93067e-21
3.24297e-21
2.26175e-21
3.05396e-21
1.64765e-21
2.80949e-21
1.10187e-21
2.50262e-21
6.4892e-22
2.11951e-21
3.04456e-22
1.65378e-21
8.39087e-23
1.08948e-21
4.29638e-22
7.79645e-23
-5.01785e-22
2.59841e-22
-1.27351e-21
5.7424e-22
-1.96574e-21
9.76335e-22
-2.52888e-21
1.46192e-21
-2.99573e-21
2.015e-21
-3.37035e-21
2.62229e-21
-3.67041e-21
3.26993e-21
-3.89984e-21
3.94762e-21
-4.06534e-21
4.64565e-21
-4.17453e-21
5.35321e-21
-4.23035e-21
6.06222e-21
-4.23687e-21
6.76538e-21
-4.19844e-21
7.45527e-21
-4.1182e-21
8.12511e-21
-3.99898e-21
8.76903e-21
-3.84415e-21
9.38139e-21
-3.6563e-21
9.95721e-21
-3.43852e-21
1.04918e-20
-3.19331e-21
1.09813e-20
-2.92357e-21
1.14218e-20
-2.63177e-21
1.18102e-20
-2.3208e-21
1.21434e-20
-1.99302e-21
1.24191e-20
-1.65139e-21
1.26346e-20
-1.29802e-21
1.27886e-20
-9.34974e-22
1.28809e-20
-5.63712e-22
1.29116e-20
-1.87245e-22
1.28805e-20
1.91057e-22
1.2788e-20
5.67431e-22
1.26338e-20
9.38415e-22
1.24181e-20
1.30122e-21
1.21421e-20
1.65411e-21
1.18086e-20
1.99514e-21
1.14201e-20
2.32202e-21
1.09798e-20
2.63219e-21
1.04905e-20
2.92307e-21
9.95622e-21
3.19185e-21
9.38076e-21
3.43616e-21
8.76883e-21
3.65307e-21
8.12555e-21
3.83994e-21
7.45663e-21
3.99391e-21
6.76759e-21
4.1125e-21
6.06527e-21
4.19229e-21
5.35678e-21
4.23032e-21
4.64991e-21
4.2233e-21
3.95288e-21
4.16754e-21
3.27578e-21
4.05833e-21
2.62829e-21
3.89238e-21
2.01951e-21
3.66454e-21
1.46503e-21
3.36531e-21
9.81132e-22
2.98893e-21
5.72801e-22
2.52922e-21
2.6123e-22
1.96813e-21
6.4902e-23
1.28689e-21
4.94622e-22
5.46474e-23
-5.56157e-22
2.30982e-22
-1.44989e-21
5.00951e-22
-2.23619e-21
8.60557e-22
-2.8894e-21
1.29206e-21
-3.42836e-21
1.78624e-21
-3.86571e-21
2.32928e-21
-4.21454e-21
2.90994e-21
-4.48144e-21
3.51883e-21
-4.67503e-21
4.14623e-21
-4.80259e-21
4.78314e-21
-4.86779e-21
5.42211e-21
-4.87625e-21
6.05586e-21
-4.83248e-21
6.67757e-21
-4.7401e-21
7.28146e-21
-4.60297e-21
7.86186e-21
-4.42459e-21
8.4139e-21
-4.20833e-21
8.93289e-21
-3.95745e-21
9.41478e-21
-3.67511e-21
9.85572e-21
-3.36441e-21
1.02525e-20
-3.02849e-21
1.06022e-20
-2.67031e-21
1.09022e-20
-2.2929e-21
1.11501e-20
-1.89918e-21
1.13442e-20
-1.49194e-21
1.1483e-20
-1.07365e-21
1.15663e-20
-6.46886e-22
1.15939e-20
-2.147e-22
1.15659e-20
2.19226e-22
1.14822e-20
6.51228e-22
1.13429e-20
1.07768e-21
1.11485e-20
1.49547e-21
1.09004e-20
1.90209e-21
1.06003e-20
2.29505e-21
1.02504e-20
2.67164e-21
9.85356e-21
3.02889e-21
9.41259e-21
3.36391e-21
8.93082e-21
3.67358e-21
8.41213e-21
3.95492e-21
7.86055e-21
4.20487e-21
7.28062e-21
4.42024e-21
6.6772e-21
4.59783e-21
6.05604e-21
4.73428e-21
5.42302e-21
4.82606e-21
4.78467e-21
4.86956e-21
4.14822e-21
4.86072e-21
3.5217e-21
4.79516e-21
2.91275e-21
4.66872e-21
2.33108e-21
4.47527e-21
1.78929e-21
4.20773e-21
1.29518e-21
3.86134e-21
8.58232e-22
3.42686e-21
5.00598e-22
2.88866e-21
2.33048e-22
2.23644e-21
6.37162e-23
1.45783e-21
5.584e-22
4.89654e-23
-6.05237e-22
2.01556e-22
-1.60268e-21
4.36671e-22
-2.47176e-21
7.49931e-22
-3.20336e-21
1.12851e-21
-3.80781e-21
1.56276e-21
-4.30091e-21
2.04142e-21
-4.69414e-21
2.55498e-21
-4.99587e-21
3.09423e-21
-5.21506e-21
3.65003e-21
-5.35905e-21
4.21508e-21
-5.43338e-21
4.78231e-21
-5.44392e-21
5.34501e-21
-5.3955e-21
5.89734e-21
-5.29267e-21
6.43389e-21
-5.13968e-21
6.94965e-21
-4.94046e-21
7.44016e-21
-4.6989e-21
7.90132e-21
-4.41863e-21
8.32945e-21
-4.10325e-21
8.72122e-21
-3.75616e-21
9.07365e-21
-3.38089e-21
9.38414e-21
-2.98075e-21
9.65041e-21
-2.55911e-21
9.87042e-21
-2.11913e-21
1.00426e-20
-1.66408e-21
1.0166e-20
-1.19689e-21
1.024e-20
-7.20798e-22
1.02646e-20
-2.39187e-22
1.02397e-20
2.4427e-22
1.01652e-20
7.25753e-22
1.00415e-20
1.20151e-21
9.86884e-21
1.66812e-21
9.64841e-21
2.12252e-21
9.38178e-21
2.56166e-21
9.07097e-21
2.98243e-21
8.71827e-21
3.38159e-21
8.32639e-21
3.75583e-21
7.89823e-21
4.10185e-21
7.43718e-21
4.41618e-21
6.94691e-21
4.69545e-21
6.43147e-21
4.93609e-21
5.89535e-21
5.13446e-21
5.34353e-21
5.28672e-21
4.78132e-21
5.38899e-21
4.21469e-21
5.437e-21
3.65003e-21
5.42636e-21
3.09418e-21
5.35212e-21
2.55551e-21
5.20841e-21
2.04257e-21
4.98958e-21
1.56215e-21
4.68958e-21
1.12666e-21
4.2977e-21
7.50173e-22
3.80472e-21
4.36088e-22
3.20349e-21
1.97194e-22
2.47706e-21
4.91693e-23
1.60612e-21
6.07603e-22
4.58383e-23
-6.51085e-22
1.71408e-22
-1.72878e-21
3.73871e-22
-2.67477e-21
6.42389e-22
-3.47255e-21
9.69224e-22
-4.13544e-21
1.34485e-21
-4.6774e-21
1.75938e-21
-5.10956e-21
2.2048e-21
-5.44215e-21
2.67326e-21
-5.6843e-21
3.15682e-21
-5.84328e-21
3.64887e-21
-5.92601e-21
4.14297e-21
-5.9385e-21
4.63343e-21
-5.88634e-21
5.115e-21
-5.77455e-21
5.58286e-21
-5.60778e-21
6.03268e-21
-5.39047e-21
6.46051e-21
-5.12688e-21
6.86274e-21
-4.82098e-21
7.23611e-21
-4.4767e-21
7.57774e-21
-4.09786e-21
7.88504e-21
-3.68823e-21
8.1557e-21
-3.25144e-21
8.38772e-21
-2.79114e-21
8.57947e-21
-2.31087e-21
8.72959e-21
-1.81417e-21
8.83724e-21
-1.30449e-21
8.90187e-21
-7.85341e-22
8.92323e-21
-2.60438e-22
8.90132e-21
2.66309e-22
8.83621e-21
7.91009e-22
8.7281e-21
1.30978e-21
8.57747e-21
1.81891e-21
8.38526e-21
2.31489e-21
8.1528e-21
2.79427e-21
7.8818e-21
3.2536e-21
7.57426e-21
3.68932e-21
7.23248e-21
4.09783e-21
6.85905e-21
4.47554e-21
6.45684e-21
4.81871e-21
6.02912e-21
5.12356e-21
5.57947e-21
5.38618e-21
5.11188e-21
5.60258e-21
4.63062e-21
5.76857e-21
4.14051e-21
5.87979e-21
3.6467e-21
5.93162e-21
3.15501e-21
5.91892e-21
2.6719e-21
5.83617e-21
2.20373e-21
5.67776e-21
1.75772e-21
5.43663e-21
1.34396e-21
5.10426e-21
9.69252e-22
4.67366e-21
6.3961e-22
4.13502e-21
3.70821e-22
3.47314e-21
1.71601e-22
2.67628e-21
4.58752e-23
1.73273e-21
6.53499e-22
3.74725e-23
-6.8888e-22
1.43172e-22
-1.83504e-21
3.13079e-22
-2.84526e-21
5.39183e-22
-3.69928e-21
8.14703e-22
-4.41164e-21
1.13138e-21
-4.9948e-21
1.48188e-21
-5.46079e-21
1.85917e-21
-5.82014e-21
2.25616e-21
-6.08194e-21
2.66651e-21
-6.2542e-21
3.08448e-21
-6.34447e-21
3.5045e-21
-6.35893e-21
3.92157e-21
-6.30373e-21
4.33117e-21
-6.18442e-21
4.72924e-21
-6.00607e-21
5.11201e-21
-5.77342e-21
5.47604e-21
-5.49104e-21
5.81827e-21
-5.1633e-21
6.13593e-21
-4.79444e-21
6.42658e-21
-4.38856e-21
6.68795e-21
-3.94964e-21
6.91813e-21
-3.48165e-21
7.11545e-21
-2.98848e-21
7.27855e-21
-2.47399e-21
7.40628e-21
-1.9419e-21
7.49788e-21
-1.39605e-21
7.55287e-21
-8.40257e-22
7.57101e-21
-2.78475e-22
7.55224e-21
2.85214e-22
7.49664e-21
8.46767e-22
7.4045e-21
1.40209e-21
7.27626e-21
1.94732e-21
7.11268e-21
2.47865e-21
6.91489e-21
2.99225e-21
6.68432e-21
3.48437e-21
6.42262e-21
3.95123e-21
6.13172e-21
4.38897e-21
5.81388e-21
4.79365e-21
5.47157e-21
5.16133e-21
5.10755e-21
5.48792e-21
4.72489e-21
5.76923e-21
4.32697e-21
6.00093e-21
3.91755e-21
6.17849e-21
3.50078e-21
6.29714e-21
3.08115e-21
6.35188e-21
2.66356e-21
6.33726e-21
2.25334e-21
6.24728e-21
1.85661e-21
6.07525e-21
1.47999e-21
5.81412e-21
1.12903e-21
5.45624e-21
8.11683e-22
4.9915e-21
5.38238e-22
4.40899e-21
3.12469e-22
3.69924e-21
1.41384e-22
2.84828e-21
3.52789e-23
1.8386e-21
6.88783e-22
2.95059e-23
-7.18474e-22
1.16077e-22
-1.92219e-21
2.5428e-22
-2.98398e-21
4.38562e-22
-3.88407e-21
6.62954e-22
-4.63655e-21
9.21358e-22
-5.25373e-21
1.20807e-21
-5.74803e-21
1.51705e-21
-6.12964e-21
1.84248e-21
-6.40784e-21
2.1792e-21
-6.59134e-21
2.52226e-21
-6.68787e-21
2.86715e-21
-6.7041e-21
3.20978e-21
-6.64659e-21
3.54643e-21
-6.52126e-21
3.87363e-21
-6.33341e-21
4.18829e-21
-6.08818e-21
4.48754e-21
-5.79037e-21
4.76893e-21
-5.44473e-21
5.03008e-21
-5.05563e-21
5.26898e-21
-4.62748e-21
5.4838e-21
-4.16448e-21
5.67302e-21
-3.67089e-21
5.83519e-21
-3.15067e-21
5.96917e-21
-2.60798e-21
6.0741e-21
-2.04681e-21
6.14936e-21
-1.47127e-21
6.19454e-21
-8.85364e-22
6.20947e-21
-2.933e-22
6.19402e-21
3.00786e-22
6.14825e-21
8.9266e-22
6.07234e-21
1.47813e-21
5.96675e-21
2.05304e-21
5.83218e-21
2.61335e-21
5.66951e-21
3.15507e-21
5.47985e-21
3.67419e-21
5.26458e-21
4.16666e-21
5.02536e-21
4.62839e-21
4.76395e-21
5.05528e-21
4.48243e-21
5.44308e-21
4.18309e-21
5.78753e-21
3.86844e-21
6.08416e-21
3.54132e-21
6.32838e-21
3.20485e-21
6.51533e-21
2.86246e-21
6.63995e-21
2.51782e-21
6.69703e-21
2.1751e-21
6.68057e-21
1.8389e-21
6.58404e-21
1.5139e-21
6.40099e-21
1.20508e-21
6.12363e-21
9.18832e-22
5.74286e-21
6.61279e-22
5.24965e-21
4.36122e-22
4.63454e-21
2.52049e-22
3.88345e-21
1.15841e-22
2.98405e-21
3.06965e-23
1.92417e-21
7.19476e-22
2.32907e-23
-7.42032e-22
9.00492e-23
-1.98928e-21
1.96767e-22
-3.09102e-21
3.39482e-22
-4.02712e-21
5.13598e-22
-4.811e-21
7.1468e-22
-5.45516e-21
9.37828e-22
-5.97152e-21
1.1783e-21
-6.37046e-21
1.43178e-21
-6.66163e-21
1.69424e-21
-6.85406e-21
1.96183e-21
-6.95568e-21
2.23089e-21
-6.97334e-21
2.49826e-21
-6.9141e-21
2.76107e-21
-6.78418e-21
3.01657e-21
-6.58898e-21
3.26225e-21
-6.3339e-21
3.49594e-21
-6.02408e-21
3.71562e-21
-5.66442e-21
3.91954e-21
-5.25953e-21
4.10607e-21
-4.814e-21
4.27382e-21
-4.33221e-21
4.42145e-21
-3.8185e-21
4.54801e-21
-3.27721e-21
4.65261e-21
-2.71255e-21
4.73459e-21
-2.12874e-21
4.79337e-21
-1.52999e-21
4.82863e-21
-9.20544e-22
4.84014e-21
-3.04721e-22
4.82789e-21
3.13126e-22
4.792e-21
9.28628e-22
4.73264e-21
1.53757e-21
4.65011e-21
2.13565e-21
4.54491e-21
2.71864e-21
4.41776e-21
3.28233e-21
4.26957e-21
3.82249e-21
4.10141e-21
4.33494e-21
3.91453e-21
4.81542e-21
3.71033e-21
5.25963e-21
3.49043e-21
5.66316e-21
3.2566e-21
6.02153e-21
3.01086e-21
6.33011e-21
2.7554e-21
6.58407e-21
2.49269e-21
6.77832e-21
2.22549e-21
6.90749e-21
1.95675e-21
6.96613e-21
1.68956e-21
6.94818e-21
1.4275e-21
6.84666e-21
1.17435e-21
6.65456e-21
9.34649e-22
6.36366e-21
7.12326e-22
5.9658e-21
5.11069e-22
5.45106e-21
3.37614e-22
4.80784e-21
1.96073e-22
4.02507e-21
8.92552e-23
3.09122e-21
2.2621e-23
1.99022e-21
7.42081e-22
1.6401e-23
-7.58401e-22
6.40816e-23
-2.03715e-21
1.4035e-22
-3.16744e-21
2.42353e-22
-4.12927e-21
3.66852e-22
-4.93566e-21
5.10562e-22
-5.59903e-21
6.69997e-22
-6.13114e-21
8.41967e-22
-6.54259e-21
1.02346e-21
-6.84327e-21
1.21131e-21
-7.04205e-21
1.40291e-21
-7.14738e-21
1.59554e-21
-7.16605e-21
1.78714e-21
-7.10575e-21
1.97546e-21
-6.97253e-21
2.15853e-21
-6.77206e-21
2.33454e-21
-6.50991e-21
2.50198e-21
-6.19151e-21
2.65936e-21
-5.82177e-21
2.80545e-21
-5.40559e-21
2.93904e-21
-4.94754e-21
3.05919e-21
-4.4523e-21
3.16497e-21
-3.92422e-21
3.25566e-21
-3.36783e-21
3.33057e-21
-2.78737e-21
3.38923e-21
-2.1873e-21
3.43123e-21
-1.5719e-21
3.45641e-21
-9.4565e-22
3.46461e-21
-3.1287e-22
3.45579e-21
3.21988e-22
3.42991e-21
9.54542e-22
3.38718e-21
1.58034e-21
3.32787e-21
2.19501e-21
3.25238e-21
2.79419e-21
3.16119e-21
3.37357e-21
3.0549e-21
3.92885e-21
2.93431e-21
4.45561e-21
2.80027e-21
4.94954e-21
2.65386e-21
5.40614e-21
2.49621e-21
5.82093e-21
2.3286e-21
6.18927e-21
2.15247e-21
6.50638e-21
1.9694e-21
6.76731e-21
1.78113e-21
6.96678e-21
1.58974e-21
7.0991e-21
1.39739e-21
7.15875e-21
1.2061e-21
7.13981e-21
1.01878e-21
7.03424e-21
8.3806e-22
6.83564e-21
6.66426e-22
6.53571e-21
5.07229e-22
6.12492e-21
3.64892e-22
5.59348e-21
2.41489e-22
4.93143e-21
1.39001e-22
4.12711e-21
6.2959e-23
3.1665e-21
1.56924e-23
2.03754e-21
7.57749e-22
9.90483e-24
-7.68428e-22
3.87654e-23
-2.06592e-21
8.48992e-23
-3.21352e-21
1.46408e-22
-4.19073e-21
2.21449e-22
-5.01067e-21
3.07927e-22
-5.68551e-21
4.03848e-22
-6.22706e-21
5.07329e-22
-6.64609e-21
6.16674e-22
-6.95264e-21
7.30073e-22
-7.15546e-21
8.44947e-22
-7.26225e-21
9.60769e-22
-7.28186e-21
1.07636e-21
-7.22131e-21
1.18981e-21
-7.08595e-21
1.29983e-21
-6.88204e-21
1.40564e-21
-6.61567e-21
1.50631e-21
-6.29212e-21
1.60096e-21
-5.91637e-21
1.68879e-21
-5.49335e-21
1.76915e-21
-5.02783e-21
1.84137e-21
-4.52443e-21
1.90497e-21
-3.98771e-21
1.95941e-21
-3.42214e-21
2.00439e-21
-2.83222e-21
2.03959e-21
-2.22238e-21
2.06483e-21
-1.59703e-21
2.07986e-21
-9.60629e-22
2.08464e-21
-3.17625e-22
2.07915e-21
3.27481e-22
2.06345e-21
9.70237e-22
2.03763e-21
1.60616e-21
2.00182e-21
2.23083e-21
1.95622e-21
2.8398e-21
1.90117e-21
3.42864e-21
1.83707e-21
3.99298e-21
1.76437e-21
4.52835e-21
1.68361e-21
5.03034e-21
1.5954e-21
5.4944e-21
1.50045e-21
5.91594e-21
1.39958e-21
6.29022e-21
1.29363e-21
6.61241e-21
1.18355e-21
6.87748e-21
1.07017e-21
7.08026e-21
9.54743e-22
7.21468e-21
8.39112e-22
7.27453e-21
7.24717e-22
7.25436e-21
6.11864e-22
7.14739e-21
5.02882e-22
6.94477e-21
4.00239e-22
6.63826e-21
3.05729e-22
6.21972e-21
2.19146e-22
5.67991e-21
1.43817e-22
5.00605e-21
8.41452e-23
4.18663e-21
3.93308e-23
3.21116e-21
1.06116e-23
2.06541e-21
7.68327e-22
3.46052e-24
-7.71719e-22
1.36628e-23
-2.07591e-21
2.98401e-23
-3.22944e-21
5.11255e-23
-4.21179e-21
7.67949e-23
-5.03613e-21
1.06251e-22
-5.71478e-21
1.38765e-22
-6.25942e-21
1.73637e-22
-6.68083e-21
2.10062e-22
-6.98894e-21
2.47761e-22
-7.19305e-21
2.86959e-22
-7.30134e-21
3.27703e-22
-7.3225e-21
3.66702e-22
-7.26021e-21
4.03912e-22
-7.12306e-21
4.40435e-22
-6.91846e-21
4.75795e-22
-6.65094e-21
5.09445e-22
-6.32567e-21
5.41076e-22
-5.9479e-21
5.70421e-22
-5.5226e-21
5.97268e-22
-5.05456e-21
6.21364e-22
-4.5484e-21
6.42564e-22
-4.00876e-21
6.60732e-22
-3.44014e-21
6.75742e-22
-2.84706e-21
6.87409e-22
-2.23391e-21
6.95693e-22
-1.60523e-21
7.00531e-22
-9.65424e-22
7.01924e-22
-3.19021e-22
6.9985e-22
3.29538e-22
6.94335e-22
9.75721e-22
6.85417e-22
1.61506e-21
6.73158e-22
2.24306e-21
6.57653e-22
2.8553e-21
6.38964e-22
3.44732e-21
6.17277e-22
4.01467e-21
5.92672e-22
4.55295e-21
5.65419e-22
5.05761e-21
5.35679e-22
5.52415e-21
5.03729e-22
5.9479e-21
4.69824e-22
6.32413e-21
4.34314e-22
6.64794e-21
3.97693e-22
6.91412e-21
3.60531e-22
7.11746e-21
3.21662e-22
7.25358e-21
2.81157e-22
7.31511e-21
2.42316e-22
7.29331e-21
2.05106e-22
7.18456e-21
1.69667e-22
6.98025e-21
1.35386e-22
6.6727e-21
1.02542e-22
6.25209e-21
7.46236e-23
5.70749e-21
5.10908e-23
5.02956e-21
2.88234e-23
4.20791e-21
1.17994e-23
3.22715e-21
1.77312e-24
2.07514e-21
7.70056e-22
-2.60508e-24
-7.69104e-22
-1.10272e-23
-2.06693e-21
-2.49297e-23
-3.21506e-21
-4.39698e-23
-4.1923e-21
-6.74879e-23
-5.01221e-21
-9.49688e-23
-5.68694e-21
-1.25773e-22
-6.2283e-21
-1.59108e-22
-6.64721e-21
-1.94244e-22
-6.95354e-21
-2.3085e-22
-7.1562e-21
-2.69082e-22
-7.26289e-21
-3.08979e-22
-7.28239e-21
-3.4726e-22
-7.22173e-21
-3.83852e-22
-7.08628e-21
-4.19876e-22
-6.88226e-21
-4.54806e-22
-6.61584e-21
-4.88135e-22
-6.29219e-21
-5.1952e-22
-5.91637e-21
-5.48712e-22
-5.49326e-21
-5.75482e-22
-5.02764e-21
-5.99555e-22
-4.52416e-21
-6.20764e-22
-3.98738e-21
-6.38974e-22
-3.42176e-21
-6.54106e-22
-2.83177e-21
-6.66026e-22
-2.22187e-21
-6.74694e-22
-1.59648e-21
-6.80034e-22
-9.60047e-22
-6.82023e-22
-3.17019e-22
-6.80637e-22
3.28144e-22
-6.75904e-22
9.70969e-22
-6.67836e-22
1.60696e-21
-6.56472e-22
2.23167e-21
-6.41848e-22
2.84064e-21
-6.241e-22
3.42954e-21
-6.03347e-22
3.99388e-21
-5.79733e-22
4.5293e-21
-5.53419e-22
5.03125e-21
-5.24604e-22
5.49529e-21
-4.93521e-22
5.91677e-21
-4.60465e-22
6.29102e-21
-4.2571e-22
6.61312e-21
-3.8979e-22
6.87813e-21
-3.53204e-22
7.0808e-21
-3.1481e-22
7.21514e-21
-2.7465e-22
7.27486e-21
-2.36028e-22
7.25456e-21
-1.98874e-22
7.14747e-21
-1.63577e-22
6.9448e-21
-1.29474e-22
6.63811e-21
-9.66872e-23
6.21934e-21
-6.93041e-23
5.67965e-21
-4.72517e-23
5.00625e-21
-2.58425e-23
4.18613e-21
-1.00169e-23
3.21066e-21
-1.52035e-24
2.06552e-21
7.68483e-22
-9.70957e-24
-7.59066e-22
-3.62194e-23
-2.03974e-21
-7.99555e-23
-3.17059e-21
-1.39189e-22
-4.13239e-21
-2.12119e-22
-4.93866e-21
-2.96776e-22
-5.60172e-21
-3.9112e-22
-6.13345e-21
-4.9321e-22
-6.54467e-21
-6.01347e-22
-6.84501e-21
-7.13695e-22
-7.04349e-21
-8.27635e-22
-7.14862e-21
-9.42698e-22
-7.16701e-21
-1.05762e-21
-7.10652e-21
-1.17048e-21
-6.97315e-21
-1.28e-21
-6.77249e-21
-1.3854e-21
-6.5102e-21
-1.48575e-21
-6.19162e-21
-1.58015e-21
-5.82176e-21
-1.66782e-21
-5.4054e-21
-1.74801e-21
-4.94725e-21
-1.82019e-21
-4.4518e-21
-1.88381e-21
-3.92358e-21
-1.93844e-21
-3.36699e-21
-1.98363e-21
-2.78645e-21
-2.01913e-21
-2.18628e-21
-2.04467e-21
-1.57085e-21
-2.06018e-21
-9.44495e-22
-2.06551e-21
-3.11645e-22
-2.0607e-21
3.23337e-22
-2.04567e-21
9.55934e-22
-2.02059e-21
1.58184e-21
-1.98556e-21
2.19661e-21
-1.9409e-21
2.79592e-21
-1.88676e-21
3.37536e-21
-1.82365e-21
3.93069e-21
-1.75183e-21
4.45742e-21
-1.67201e-21
4.95135e-21
-1.58469e-21
5.40788e-21
-1.49063e-21
5.8226e-21
-1.39052e-21
6.19081e-21
-1.28535e-21
6.5078e-21
-1.17591e-21
6.76855e-21
-1.06313e-21
6.96785e-21
-9.48121e-22
7.09992e-21
-8.3283e-22
7.15938e-21
-7.1864e-22
7.14026e-21
-6.05963e-22
7.0344e-21
-4.96791e-22
6.83537e-21
-3.94187e-22
6.53549e-21
-3.00716e-22
6.12494e-21
-2.14484e-22
5.59267e-21
-1.38604e-22
4.93016e-21
-8.09235e-23
4.12689e-21
-3.88538e-23
3.16725e-21
-1.14903e-23
2.03746e-21
7.56926e-22
-1.53634e-23
-7.43525e-22
-6.11385e-23
-1.99284e-21
-1.35276e-22
-3.09544e-21
-2.35277e-22
-4.03145e-21
-3.57839e-22
-4.81524e-21
-4.99791e-22
-5.459e-21
-6.57827e-22
-5.97472e-21
-8.28661e-22
-6.37323e-21
-1.00906e-21
-6.66405e-21
-1.19603e-21
-6.85603e-21
-1.38686e-21
-6.95732e-21
-1.5788e-21
-6.97467e-21
-1.76975e-21
-6.91518e-21
-1.95759e-21
-6.78496e-21
-2.14017e-21
-6.58956e-21
-2.31585e-21
-6.33423e-21
-2.48292e-21
-6.02424e-21
-2.64012e-21
-5.66431e-21
-2.78598e-21
-5.25927e-21
-2.91956e-21
-4.81347e-21
-3.03962e-21
-4.33152e-21
-3.14545e-21
-3.81761e-21
-3.23612e-21
-3.27614e-21
-3.31126e-21
-2.71123e-21
-3.37013e-21
-2.12728e-21
-3.41259e-21
-1.52835e-21
-3.43812e-21
-9.18874e-22
-3.44682e-21
-3.02938e-22
-3.43843e-21
3.15005e-22
-3.41331e-21
9.30775e-22
-3.37132e-21
1.53986e-21
-3.31289e-21
2.13811e-21
-3.23814e-21
2.72117e-21
-3.14783e-21
3.28495e-21
-3.04233e-21
3.82515e-21
-2.92268e-21
4.33764e-21
-2.78947e-21
4.81807e-21
-2.64395e-21
5.26219e-21
-2.48703e-21
5.66556e-21
-2.32023e-21
6.02378e-21
-2.14476e-21
6.33212e-21
-1.96235e-21
6.58584e-21
-1.77458e-21
6.7798e-21
-1.58365e-21
6.90869e-21
-1.3916e-21
6.96701e-21
-1.20043e-21
6.94861e-21
-1.01301e-21
6.84681e-21
-8.32702e-22
6.65468e-21
-6.61334e-22
6.36312e-21
-5.00919e-22
5.96433e-21
-3.59543e-22
5.45058e-21
-2.39342e-22
4.80806e-21
-1.36632e-22
4.02352e-21
-5.97777e-23
3.08911e-21
-1.40641e-23
1.9903e-21
7.42784e-22
-2.29485e-23
-7.2005e-22
-8.70965e-23
-1.92739e-21
-1.91714e-22
-2.98955e-21
-3.32501e-22
-3.88947e-21
-5.05154e-22
-4.64153e-21
-7.04753e-22
-5.25846e-21
-9.26676e-22
-5.75197e-21
-1.16622e-21
-6.13293e-21
-1.41894e-21
-6.41067e-21
-1.68066e-21
-6.59369e-21
-1.94763e-21
-6.68983e-21
-2.21609e-21
-6.7057e-21
-2.48301e-21
-6.64783e-21
-2.74535e-21
-6.52219e-21
-3.00046e-21
-6.3341e-21
-3.24578e-21
-6.08854e-21
-3.47919e-21
-5.79054e-21
-3.69863e-21
-5.44457e-21
-3.90238e-21
-5.05529e-21
-4.08877e-21
-4.62683e-21
-4.25645e-21
-4.16368e-21
-4.40418e-21
-3.66971e-21
-4.53086e-21
-3.14938e-21
-4.63561e-21
-2.60638e-21
-4.7177e-21
-2.04515e-21
-4.7767e-21
-1.46928e-21
-4.81226e-21
-8.83298e-22
-4.82429e-21
-2.90857e-22
-4.81258e-21
3.03276e-22
-4.77727e-21
8.95477e-22
-4.71845e-21
1.48098e-21
-4.63661e-21
2.05625e-21
-4.53212e-21
2.6166e-21
-4.40582e-21
3.15862e-21
-4.2584e-21
3.67762e-21
-4.09109e-21
4.17025e-21
-3.90493e-21
4.63174e-21
-3.70153e-21
5.05865e-21
-3.48232e-21
5.44612e-21
-3.24923e-21
5.79046e-21
-3.00406e-21
6.08664e-21
-2.74921e-21
6.33067e-21
-2.48692e-21
6.51714e-21
-2.22011e-21
6.64148e-21
-1.95153e-21
6.69799e-21
-1.6846e-21
6.68139e-21
-1.42267e-21
6.58427e-21
-1.16907e-21
6.4004e-21
-9.29039e-22
6.12301e-21
-7.08909e-22
5.74292e-21
-5.07744e-22
5.24807e-21
-3.31183e-22
4.63117e-21
-1.92754e-22
3.88294e-21
-9.0714e-23
2.9854e-21
-2.56544e-23
1.92416e-21
7.17048e-22
-2.88959e-23
-6.90767e-22
-1.13043e-22
-1.84165e-21
-2.48909e-22
-2.85218e-21
-4.31586e-22
-3.70547e-21
-6.54883e-22
-4.41705e-21
-9.12504e-22
-4.99978e-21
-1.19852e-21
-5.46504e-21
-1.5068e-21
-5.82385e-21
-1.83173e-21
-6.08503e-21
-2.16789e-21
-6.2569e-21
-2.51062e-21
-6.34656e-21
-2.85504e-21
-6.36078e-21
-3.19735e-21
-6.30511e-21
-3.5335e-21
-6.18564e-21
-3.86052e-21
-6.00677e-21
-4.17474e-21
-5.77401e-21
-4.47394e-21
-5.49113e-21
-4.75488e-21
-5.16338e-21
-5.01609e-21
-4.79396e-21
-5.25464e-21
-4.38809e-21
-5.46968e-21
-3.94861e-21
-5.65857e-21
-3.4807e-21
-5.82108e-21
-2.98692e-21
-5.95492e-21
-2.47247e-21
-6.0604e-21
-1.93975e-21
-6.13559e-21
-1.39402e-21
-6.18138e-21
-8.37605e-22
-6.19617e-21
-2.7601e-22
-6.18137e-21
2.88358e-22
-6.13561e-21
8.4976e-22
-6.0606e-21
1.40583e-21
-5.95523e-21
1.95094e-21
-5.82167e-21
2.48291e-21
-5.65928e-21
2.99627e-21
-5.47072e-21
3.4889e-21
-5.25581e-21
3.95532e-21
-5.01764e-21
4.39337e-21
-4.75655e-21
4.7975e-21
-4.476e-21
5.1653e-21
-4.17688e-21
5.49119e-21
-3.86308e-21
5.7725e-21
-3.5361e-21
6.00346e-21
-3.20025e-21
6.1809e-21
-2.85789e-21
6.29886e-21
-2.51373e-21
6.35346e-21
-2.17072e-21
6.3379e-21
-1.83446e-21
6.24762e-21
-1.50984e-21
6.07557e-21
-1.2016e-21
5.81348e-21
-9.12914e-22
5.45369e-21
-6.55882e-22
4.99049e-21
-4.3681e-22
4.40973e-21
-2.50972e-22
3.69634e-21
-1.11046e-22
2.84392e-21
-2.69676e-23
1.83856e-21
6.90004e-22
-3.64837e-23
-6.53646e-22
-1.40137e-22
-1.7363e-21
-3.08243e-22
-2.68252e-21
-5.3294e-22
-3.47935e-21
-8.07428e-22
-4.14128e-21
-1.12379e-21
-4.6823e-21
-1.47409e-21
-5.11372e-21
-1.85123e-21
-5.44584e-21
-2.24806e-21
-5.68738e-21
-2.65838e-21
-5.84592e-21
-3.07599e-21
-5.92829e-21
-3.49582e-21
-5.94045e-21
-3.91253e-21
-5.88788e-21
-4.32204e-21
-5.77579e-21
-4.71972e-21
-5.60869e-21
-5.10236e-21
-5.39117e-21
-5.46603e-21
-5.12715e-21
-5.8083e-21
-4.82104e-21
-6.12564e-21
-4.47638e-21
-6.41637e-21
-4.09741e-21
-6.67748e-21
-3.68733e-21
-6.90787e-21
-3.25044e-21
-7.10501e-21
-2.78966e-21
-7.26833e-21
-2.30933e-21
-7.39591e-21
-1.81206e-21
-7.48781e-21
-1.30233e-21
-7.54274e-21
-7.82561e-22
-7.56131e-21
-2.57654e-22
-7.54261e-21
2.69773e-22
-7.48754e-21
7.94467e-22
-7.39555e-21
1.31394e-21
-7.26791e-21
1.82302e-21
-7.10461e-21
2.31966e-21
-6.90749e-21
2.7988e-21
-6.67724e-21
3.25862e-21
-6.41624e-21
3.69394e-21
-6.12578e-21
4.10283e-21
-5.80857e-21
4.47989e-21
-5.46659e-21
4.82323e-21
-5.10309e-21
5.12732e-21
-4.72071e-21
5.38999e-21
-4.32323e-21
5.60559e-21
-3.91404e-21
5.77157e-21
-3.49748e-21
5.88192e-21
-3.07776e-21
5.93347e-21
-2.66027e-21
5.92008e-21
-2.25027e-21
5.83728e-21
-1.85266e-21
5.6771e-21
-1.47534e-21
5.43599e-21
-1.12746e-21
5.10483e-21
-8.10869e-22
4.6721e-21
-5.31046e-22
4.12975e-21
-3.08992e-22
3.47226e-21
-1.44996e-22
2.67831e-21
-4.05037e-23
1.7332e-21
6.49437e-22
-4.37854e-23
-6.09386e-22
-1.68231e-22
-1.61009e-21
-3.6922e-22
-2.47994e-21
-6.37563e-22
-3.20953e-21
-9.64192e-22
-3.81331e-21
-1.33956e-21
-4.30569e-21
-1.75435e-21
-4.69781e-21
-2.20019e-21
-4.99894e-21
-2.66856e-21
-5.21807e-21
-3.15231e-21
-5.36128e-21
-3.64421e-21
-5.43562e-21
-4.13846e-21
-5.44549e-21
-4.62857e-21
-5.3972e-21
-5.1102e-21
-5.29361e-21
-5.57764e-21
-5.14086e-21
-6.0277e-21
-4.94074e-21
-6.45494e-21
-4.69968e-21
-6.85743e-21
-4.41831e-21
-7.23016e-21
-4.10355e-21
-7.57224e-21
-3.75519e-21
-7.87882e-21
-3.38075e-21
-8.15004e-21
-2.97916e-21
-8.38131e-21
-2.55845e-21
-8.57377e-21
-2.11686e-21
-8.72309e-21
-1.66283e-21
-8.83152e-21
-1.19389e-21
-8.89527e-21
-7.18894e-22
-8.9176e-21
-2.3534e-22
-8.8948e-21
2.46857e-22
-8.83075e-21
7.30307e-22
-8.72182e-21
1.20472e-21
-8.57244e-21
1.67334e-21
-8.37957e-21
2.12629e-21
-8.14857e-21
2.56734e-21
-7.87699e-21
2.98647e-21
-7.57088e-21
3.38733e-21
-7.2284e-21
3.7598e-21
-6.8563e-21
4.10737e-21
-6.45346e-21
4.41997e-21
-6.02695e-21
4.70051e-21
-5.57657e-21
4.93932e-21
-5.10996e-21
5.13877e-21
-4.62793e-21
5.2893e-21
-4.13864e-21
5.3924e-21
-3.64426e-21
5.43886e-21
-3.15312e-21
5.42859e-21
-2.66878e-21
5.3525e-21
-2.20181e-21
5.20991e-21
-1.75627e-21
4.98951e-21
-1.33945e-21
4.68705e-21
-9.63985e-22
4.29641e-21
-6.42804e-22
3.80663e-21
-3.72309e-22
3.2011e-21
-1.65995e-22
2.47112e-21
-3.99326e-23
1.60595e-21
6.09464e-22
-5.06484e-23
-5.58054e-22
-1.97781e-22
-1.46122e-21
-4.32728e-22
-2.24324e-21
-7.45976e-22
-2.89465e-21
-1.12538e-21
-3.43235e-21
-1.56045e-21
-3.86913e-21
-2.04018e-21
-4.21667e-21
-2.55412e-21
-4.48368e-21
-3.09373e-21
-4.67724e-21
-3.64981e-21
-4.80405e-21
-4.21529e-21
-4.86911e-21
-4.78223e-21
-4.87759e-21
-5.34527e-21
-4.83334e-21
-5.89723e-21
-4.74089e-21
-6.43407e-21
-4.60343e-21
-6.94923e-21
-4.425e-21
-7.44017e-21
-4.20835e-21