/*--------------------------------*- C++ -*----------------------------------*\
| =========                 |                                                 |
| \\      /  F ield         | OpenFOAM: The Open Source CFD Toolbox           |
|  \\    /   O peration     | Version:  5.0                                   |
|   \\  /    A nd           | Web:      www.OpenFOAM.org                      |
|    \\/     M anipulation  |                                                 |
\*---------------------------------------------------------------------------*/
FoamFile
{
    version     2.0;
    format      ascii;
    class       volScalarField;
    location    "0.8";
    object      shearRate;
}
// * * * * * * * * * * * * * * * * * * * * * * * * * * * * * * * * * * * * * //

dimensions      [0 0 -1 0 0 0 0];

internalField   nonuniform List<scalar> 
50
(
2.14326e-14
2.82769e-14
1.15754e-15
2.86631e-14
2.23742e-14
2.08135e-14
1.67042e-14
2.24994e-14
2.8896e-14
2.29766e-14
2.83611e-14
1.3731e-14
2.22342e-14
2.20263e-14
1.19193e-14
2.59588e-14
4.44794e-14
6.53293e-14
4.75222e-14
4.50051e-14
2.67497e-14
2.47046e-14
4.86792e-15
2.61535e-14
2.33161e-14
1.47073e-14
2.48429e-14
6.60355e-14
1.77785e-14
2.46949e-14
8.80644e-14
6.64263e-14
8.73855e-14
1.09875e-13
1.09127e-13
1.55009e-14
2.4803e-14
4.47815e-14
2.2928e-14
6.54426e-14
7.68914e-15
7.59899e-15
9.22805e-15
8.69691e-14
2.20323e-14
8.78482e-14
1.08699e-13
6.57697e-14
1.08505e-13
1.30167e-13
)
;

boundaryField
{
    top
    {
        type            zeroGradient;
    }
    bottom
    {
        type            symmetryPlane;
    }
    inlet
    {
        type            zeroGradient;
    }
    outlet
    {
        type            zeroGradient;
    }
    frontAndBack
    {
        type            empty;
    }
    procBoundary1to0
    {
        type            processor;
        value           nonuniform List<scalar> 10(4.4131e-14 2.19183e-14 2.26594e-14 2.36074e-14 6.30002e-15 5.73802e-15 6.54663e-14 4.40279e-14 2.3398e-14 4.39652e-14);
    }
}


// ************************************************************************* //
