/*--------------------------------*- C++ -*----------------------------------*\
| =========                 |                                                 |
| \\      /  F ield         | OpenFOAM: The Open Source CFD Toolbox           |
|  \\    /   O peration     | Version:  5.0                                   |
|   \\  /    A nd           | Web:      www.OpenFOAM.org                      |
|    \\/     M anipulation  |                                                 |
\*---------------------------------------------------------------------------*/
FoamFile
{
    version     2.0;
    format      ascii;
    class       volVectorField;
    location    "0.8";
    object      U;
}
// * * * * * * * * * * * * * * * * * * * * * * * * * * * * * * * * * * * * * //

dimensions      [0 1 -1 0 0 0 0];

internalField   nonuniform List<vector> 
25
(
(1 4.84007e-09 6.46481e-23)
(1 6.31961e-09 3.23241e-23)
(1 -3.63676e-10 -3.23241e-23)
(1 -1.32426e-08 -1.58515e-29)
(0.999999 -5.06517e-09 3.26279e-23)
(0.92 1.26436e-08 -2.79794e-23)
(0.92 2.0102e-08 2.5577e-29)
(0.92 -1.22339e-09 5.59589e-23)
(0.92 -3.98933e-08 -2.33312e-30)
(0.919999 -2.1631e-08 -5.64505e-23)
(0.76 1.9196e-08 2.79794e-23)
(0.76 3.77259e-08 2.79795e-23)
(0.76 -1.88174e-09 2.79794e-23)
(0.76 -6.89667e-08 1.97459e-28)
(0.76 -4.83962e-08 -2.82621e-23)
(0.52 2.22563e-08 5.5959e-23)
(0.52 4.54296e-08 2.79797e-23)
(0.52 -2.31441e-09 -1.45605e-29)
(0.52 -7.97156e-08 -2.79794e-23)
(0.52 -5.85861e-08 -3.74564e-28)
(0.2 9.74302e-09 3.98787e-23)
(0.2 1.97402e-08 1.99394e-23)
(0.2 -1.1971e-09 6.2809e-30)
(0.2 -3.42595e-08 0)
(0.2 -2.54255e-08 0)
)
;

boundaryField
{
    top
    {
        type            fixedValue;
        value           uniform (0 0 0);
    }
    bottom
    {
        type            symmetryPlane;
    }
    inlet
    {
        type            pressureInletVelocity;
        value           nonuniform 0();
    }
    outlet
    {
        type            inletOutlet;
        inletValue      uniform (1 0 0);
        value           nonuniform List<vector> 5((0.999999 -5.06517e-09 3.26279e-23) (0.919999 -2.1631e-08 -5.64505e-23) (0.76 -4.83962e-08 -2.82621e-23) (0.52 -5.85861e-08 -3.74564e-28) (0.2 -2.54255e-08 0));
    }
    frontAndBack
    {
        type            empty;
    }
    procBoundary1to0
    {
        type            processor;
        value           nonuniform List<vector> 5((1 -1.36259e-09 -2.62245e-29) (0.92 -1.5347e-09 -2.79794e-23) (0.76 3.47743e-09 -5.59588e-23) (0.52 7.65446e-09 5.59589e-23) (0.2 3.8521e-09 3.98787e-23));
    }
}


// ************************************************************************* //
