/*--------------------------------*- C++ -*----------------------------------*\
| =========                 |                                                 |
| \\      /  F ield         | OpenFOAM: The Open Source CFD Toolbox           |
|  \\    /   O peration     | Version:  5.0                                   |
|   \\  /    A nd           | Web:      www.OpenFOAM.org                      |
|    \\/     M anipulation  |                                                 |
\*---------------------------------------------------------------------------*/
FoamFile
{
    version     2.0;
    format      ascii;
    class       surfaceScalarField;
    location    "1.9";
    object      phi;
}
// * * * * * * * * * * * * * * * * * * * * * * * * * * * * * * * * * * * * * //

dimensions      [0 3 -1 0 0 0 0];

internalField   nonuniform List<scalar> 
85
(
0.00020171
1.05337e-09
0.000201713
-2.45157e-09
0.000201711
1.2996e-09
0.00020175
-3.85316e-08
0.000201897
-1.46559e-07
0.000206799
-4.90297e-06
0.000212076
-5.2762e-06
0.000212744
-6.68743e-07
0.000212812
-6.76196e-08
-3.97113e-07
0.000185573
2.70622e-09
0.000185576
-6.03616e-09
0.000185571
6.95963e-09
0.0001856
-6.80225e-08
0.00018555
-9.63e-08
0.000183486
-2.83866e-06
0.000181442
-3.23256e-06
0.000181314
-5.40319e-07
0.000181364
-1.18172e-07
-2.75106e-07
0.0001533
3.27855e-09
0.000153301
-7.08123e-09
0.000153298
1.03338e-08
0.000153288
-5.85677e-08
0.000153208
-1.6355e-08
0.000151699
-1.32955e-06
0.00015007
-1.60309e-06
0.000149815
-2.85407e-07
0.000149778
-8.1362e-08
-1.47141e-07
0.000104891
2.08355e-09
0.000104888
-4.33672e-09
0.000104891
7.2738e-09
0.000104859
-2.69111e-08
0.000104827
1.57252e-08
0.000103861
-3.63101e-07
0.000102725
-4.66741e-07
0.000102516
-7.67856e-08
0.000102459
-2.42052e-08
-5.0904e-08
4.03438e-05
4.03395e-05
4.03468e-05
4.03198e-05
4.03356e-05
3.99725e-05
3.95057e-05
3.94289e-05
3.94047e-05
)
;

boundaryField
{
    top
    {
        type            calculated;
        value           uniform 0;
    }
    bottom
    {
        type            symmetryPlane;
        value           uniform 0;
    }
    inlet
    {
        type            calculated;
        value           nonuniform List<scalar> 5(-0.000201711 -0.000185575 -0.000153301 -0.00010489 -4.03417e-05);
    }
    outlet
    {
        type            calculated;
        value           nonuniform List<scalar> 5(0.000213209 0.000181242 0.00014965 0.000102362 3.93538e-05);
    }
    frontAndBack
    {
        type            empty;
        value           nonuniform 0();
    }
}


// ************************************************************************* //
