/*--------------------------------*- C++ -*----------------------------------*\
| =========                 |                                                 |
| \\      /  F ield         | OpenFOAM: The Open Source CFD Toolbox           |
|  \\    /   O peration     | Version:  5.0                                   |
|   \\  /    A nd           | Web:      www.OpenFOAM.org                      |
|    \\/     M anipulation  |                                                 |
\*---------------------------------------------------------------------------*/
FoamFile
{
    version     2.0;
    format      ascii;
    class       volScalarField;
    location    "71";
    object      p;
}
// * * * * * * * * * * * * * * * * * * * * * * * * * * * * * * * * * * * * * //

dimensions      [0 2 -2 0 0 0 0];

internalField   nonuniform List<scalar> 
1568
(
1.05586e-10
1.75577e-10
3.09757e-10
1.31349e-10
1.21536e-10
2.17118e-10
2.42211e-10
2.53366e-10
2.824e-10
3.18897e-10
3.5389e-10
3.9229e-10
4.3467e-10
4.79554e-10
5.24367e-10
5.68673e-10
6.07307e-10
6.51675e-10
7.03561e-10
7.61822e-10
8.18174e-10
8.80494e-10
9.48923e-10
1.02213e-09
1.089e-09
1.15205e-09
1.20235e-09
1.25363e-09
1.30107e-09
1.35403e-09
1.40515e-09
1.459e-09
1.5041e-09
1.54983e-09
1.59001e-09
1.63193e-09
1.66625e-09
1.70176e-09
1.73116e-09
1.76082e-09
1.78543e-09
1.81135e-09
1.83306e-09
1.85609e-09
1.87532e-09
1.89314e-09
1.90712e-09
1.92081e-09
1.93103e-09
1.9413e-09
1.94792e-09
1.95703e-09
1.99179e-09
1.98512e-09
2.01864e-09
2.02322e-09
2.72638e-10
-2.927e-09
7.78099e-10
8.79746e-10
9.31366e-11
3.34983e-10
4.90694e-10
4.85588e-10
4.93891e-10
5.42101e-10
5.83283e-10
6.15246e-10
6.38196e-10
6.7372e-10
7.24831e-10
7.84282e-10
8.32878e-10
8.90229e-10
9.33677e-10
9.81249e-10
1.01205e-09
1.05747e-09
1.07911e-09
1.12026e-09
1.14842e-09
1.20604e-09
1.23083e-09
1.28091e-09
1.29366e-09
1.34668e-09
1.35066e-09
1.37674e-09
1.36691e-09
1.39943e-09
1.40307e-09
1.44993e-09
1.45462e-09
1.49558e-09
1.50688e-09
1.54234e-09
1.55526e-09
1.59476e-09
1.60267e-09
1.62107e-09
1.62095e-09
1.64077e-09
1.6551e-09
1.68009e-09
1.6876e-09
1.71878e-09
1.74347e-09
1.75555e-09
1.81217e-09
1.6168e-09
1.98797e-09
1.98983e-09
4.73102e-10
-1.05198e-10
3.36236e-10
4.87928e-10
-5.55087e-11
1.07667e-10
2.78852e-10
2.94926e-10
2.75082e-10
2.73693e-10
3.43609e-10
4.05901e-10
4.36135e-10
4.73274e-10
5.21375e-10
5.59246e-10
6.04631e-10
6.46832e-10
6.96465e-10
7.44981e-10
8.05086e-10
8.64899e-10
9.31773e-10
9.86955e-10
1.05354e-09
1.10603e-09
1.16204e-09
1.21327e-09
1.2743e-09
1.32213e-09
1.38027e-09
1.45093e-09
1.54227e-09
1.59941e-09
1.64517e-09
1.67781e-09
1.72053e-09
1.74473e-09
1.77667e-09
1.79946e-09
1.80925e-09
1.80843e-09
1.83612e-09
1.85791e-09
1.88262e-09
1.90044e-09
1.92311e-09
1.93987e-09
1.93839e-09
1.92099e-09
1.95629e-09
1.95504e-09
2.003e-09
1.94745e-09
1.93639e-09
1.9338e-09
3.84083e-10
7.47889e-10
9.21757e-10
3.78201e-10
1.68381e-10
3.6902e-10
4.56212e-10
4.54248e-10
4.74384e-10
5.04243e-10
5.33126e-10
5.60147e-10
5.91012e-10
6.35045e-10
6.68406e-10
7.08103e-10
7.43896e-10
7.7814e-10
8.10339e-10
8.59426e-10
9.03159e-10
9.52057e-10
9.9186e-10
1.04076e-09
1.08561e-09
1.14013e-09
1.18219e-09
1.23287e-09
1.27259e-09
1.31564e-09
1.34262e-09
1.37204e-09
1.39506e-09
1.4233e-09
1.45337e-09
1.4922e-09
1.52413e-09
1.55955e-09
1.58771e-09
1.62859e-09
1.66064e-09
1.69782e-09
1.72679e-09
1.75403e-09
1.76863e-09
1.78376e-09
1.79869e-09
1.81878e-09
1.82493e-09
1.83243e-09
1.85405e-09
1.87039e-09
1.94771e-09
1.79307e-09
1.98948e-09
1.89522e-09
2.91886e-10
2.91382e-10
3.42654e-10
1.84396e-10
3.2965e-10
5.13825e-10
5.3459e-10
5.19871e-10
5.41169e-10
5.83261e-10
6.12523e-10
6.33535e-10
6.56947e-10
6.8812e-10
7.19969e-10
7.57178e-10
7.98245e-10
8.39944e-10
8.80621e-10
9.20997e-10
9.60234e-10
9.97528e-10
1.03609e-09
1.0761e-09
1.11722e-09
1.15871e-09
1.19766e-09
1.2287e-09
1.26163e-09
1.29444e-09
1.32583e-09
1.34928e-09
1.37149e-09
1.3916e-09
1.42515e-09
1.45715e-09
1.48606e-09
1.51152e-09
1.53778e-09
1.56382e-09
1.58882e-09
1.61183e-09
1.63315e-09
1.64861e-09
1.66077e-09
1.67355e-09
1.6943e-09
1.71721e-09
1.72188e-09
1.72867e-09
1.76202e-09
1.73478e-09
1.78305e-09
1.86774e-09
1.77468e-09
1.82924e-09
3.58754e-10
2.74492e-10
2.67171e-10
3.05449e-10
4.59316e-10
5.08622e-10
4.9032e-10
4.92241e-10
5.11024e-10
5.41643e-10
5.71389e-10
6.00419e-10
6.30876e-10
6.66252e-10
7.01187e-10
7.35192e-10
7.71378e-10
8.10576e-10
8.50243e-10
8.88597e-10
9.27098e-10
9.69653e-10
1.01154e-09
1.05351e-09
1.09344e-09
1.13399e-09
1.17355e-09
1.21268e-09
1.2515e-09
1.29326e-09
1.33205e-09
1.37106e-09
1.40996e-09
1.44643e-09
1.47871e-09
1.50931e-09
1.53667e-09
1.56417e-09
1.58775e-09
1.60994e-09
1.62926e-09
1.64892e-09
1.66611e-09
1.67931e-09
1.69132e-09
1.70565e-09
1.7246e-09
1.74359e-09
1.74465e-09
1.74742e-09
1.77233e-09
1.758e-09
1.78456e-09
1.6603e-09
1.81686e-09
1.79487e-09
4.42877e-10
4.95848e-10
4.29669e-10
4.53699e-10
5.33297e-10
5.17395e-10
4.85034e-10
5.03007e-10
5.35638e-10
5.58516e-10
5.82738e-10
6.10601e-10
6.40013e-10
6.70876e-10
7.02475e-10
7.35151e-10
7.69294e-10
8.03878e-10
8.40479e-10
8.7825e-10
9.18138e-10
9.58979e-10
1.00067e-09
1.04187e-09
1.08374e-09
1.12448e-09
1.1661e-09
1.20685e-09
1.24868e-09
1.28793e-09
1.32447e-09
1.36146e-09
1.40287e-09
1.44051e-09
1.47272e-09
1.50139e-09
1.53299e-09
1.56228e-09
1.58885e-09
1.61306e-09
1.63673e-09
1.65895e-09
1.68119e-09
1.70076e-09
1.71698e-09
1.73133e-09
1.74993e-09
1.76556e-09
1.75756e-09
1.75736e-09
1.79969e-09
1.76293e-09
1.75918e-09
1.81352e-09
1.76955e-09
1.74568e-09
5.04645e-10
6.28366e-10
5.22301e-10
5.00017e-10
5.65348e-10
5.51926e-10
5.23848e-10
5.44305e-10
5.81499e-10
6.00081e-10
6.20405e-10
6.44373e-10
6.71032e-10
6.9907e-10
7.2775e-10
7.58856e-10
7.91138e-10
8.24134e-10
8.5832e-10
8.94405e-10
9.31474e-10
9.70161e-10
1.00822e-09
1.04726e-09
1.08642e-09
1.12613e-09
1.16481e-09
1.20409e-09
1.24267e-09
1.279e-09
1.31386e-09
1.34903e-09
1.3818e-09
1.41441e-09
1.44608e-09
1.47661e-09
1.50674e-09
1.53624e-09
1.56286e-09
1.58875e-09
1.61263e-09
1.63524e-09
1.65763e-09
1.67791e-09
1.69181e-09
1.70437e-09
1.72245e-09
1.7381e-09
1.73189e-09
1.73476e-09
1.76731e-09
1.74855e-09
1.76399e-09
1.66675e-09
1.76175e-09
1.70964e-09
5.5078e-10
6.61268e-10
5.51083e-10
5.17968e-10
5.92844e-10
5.87229e-10
5.6677e-10
5.84689e-10
6.15819e-10
6.35747e-10
6.52512e-10
6.67953e-10
6.92122e-10
7.19956e-10
7.47295e-10
7.76768e-10
8.07698e-10
8.39847e-10
8.73788e-10
9.08315e-10
9.43214e-10
9.80062e-10
1.01631e-09
1.05276e-09
1.09007e-09
1.12714e-09
1.1644e-09
1.20114e-09
1.23763e-09
1.27232e-09
1.30784e-09
1.34188e-09
1.37402e-09
1.40493e-09
1.43658e-09
1.46681e-09
1.49574e-09
1.52263e-09
1.54868e-09
1.57348e-09
1.59676e-09
1.61817e-09
1.63889e-09
1.65613e-09
1.66795e-09
1.68013e-09
1.69935e-09
1.71318e-09
1.70431e-09
1.70478e-09
1.73963e-09
1.70929e-09
1.71381e-09
1.71417e-09
1.6859e-09
1.67068e-09
6.0379e-10
7.08636e-10
5.75631e-10
5.42477e-10
6.26505e-10
6.20407e-10
6.00742e-10
6.1525e-10
6.35413e-10
6.51414e-10
6.67799e-10
6.85236e-10
7.07528e-10
7.31853e-10
7.57183e-10
7.85984e-10
8.15704e-10
8.46626e-10
8.79171e-10
9.13957e-10
9.47219e-10
9.81137e-10
1.01655e-09
1.05308e-09
1.0892e-09
1.12558e-09
1.16164e-09
1.19736e-09
1.23262e-09
1.26873e-09
1.3037e-09
1.33792e-09
1.3703e-09
1.40262e-09
1.43423e-09
1.46446e-09
1.49313e-09
1.52052e-09
1.54606e-09
1.57012e-09
1.59213e-09
1.61303e-09
1.6327e-09
1.65014e-09
1.66211e-09
1.6737e-09
1.69162e-09
1.70594e-09
1.69664e-09
1.69387e-09
1.72277e-09
1.69522e-09
1.71159e-09
1.65209e-09
1.66716e-09
1.6454e-09
6.54791e-10
7.55247e-10
6.10223e-10
5.81373e-10
6.63488e-10
6.50091e-10
6.23867e-10
6.35251e-10
6.54649e-10
6.6666e-10
6.77792e-10
6.98345e-10
7.19568e-10
7.4147e-10
7.66496e-10
7.93415e-10
8.2157e-10
8.5116e-10
8.82058e-10
9.13375e-10
9.47647e-10
9.81901e-10
1.01728e-09
1.05174e-09
1.08808e-09
1.12372e-09
1.15868e-09
1.19258e-09
1.22847e-09
1.26493e-09
1.29988e-09
1.33381e-09
1.36706e-09
1.39955e-09
1.43148e-09
1.4615e-09
1.49013e-09
1.51729e-09
1.54308e-09
1.56698e-09
1.58926e-09
1.61022e-09
1.63045e-09
1.64825e-09
1.66073e-09
1.67111e-09
1.68955e-09
1.70401e-09
1.69291e-09
1.68849e-09
1.71711e-09
1.6881e-09
1.68716e-09
1.65261e-09
1.65682e-09
1.6228e-09
6.99602e-10
8.02865e-10
6.51032e-10
6.16637e-10
6.92827e-10
6.75847e-10
6.4575e-10
6.54238e-10
6.72688e-10
6.84099e-10
6.94027e-10
7.10651e-10
7.29754e-10
7.52289e-10
7.78195e-10
8.01715e-10
8.27148e-10
8.55815e-10
8.86258e-10
9.15766e-10
9.49206e-10
9.83387e-10
1.0162e-09
1.04908e-09
1.08565e-09
1.12217e-09
1.15629e-09
1.18933e-09
1.22518e-09
1.26231e-09
1.29779e-09
1.33134e-09
1.36359e-09
1.39549e-09
1.42639e-09
1.45648e-09
1.48512e-09
1.51266e-09
1.5385e-09
1.5628e-09
1.58528e-09
1.60717e-09
1.62781e-09
1.64561e-09
1.6579e-09
1.66793e-09
1.68559e-09
1.70044e-09
1.68818e-09
1.68324e-09
1.71207e-09
1.67759e-09
1.68027e-09
1.65684e-09
1.61974e-09
1.6028e-09
7.33492e-10
8.27296e-10
6.83726e-10
6.45476e-10
7.14053e-10
6.96719e-10
6.65301e-10
6.71744e-10
6.88051e-10
6.98955e-10
7.08671e-10
7.23151e-10
7.41601e-10
7.62444e-10
7.85449e-10
8.08745e-10
8.34468e-10
8.62781e-10
8.921e-10
9.21982e-10
9.52492e-10
9.8321e-10
1.01162e-09
1.04111e-09
1.07536e-09
1.114e-09
1.15307e-09
1.19238e-09
1.23125e-09
1.26669e-09
1.29879e-09
1.3297e-09
1.36065e-09
1.39238e-09
1.42309e-09
1.4515e-09
1.48074e-09
1.50878e-09
1.5351e-09
1.55985e-09
1.58268e-09
1.60403e-09
1.62435e-09
1.6414e-09
1.65431e-09
1.6654e-09
1.68289e-09
1.69744e-09
1.68595e-09
1.67962e-09
1.7084e-09
1.68489e-09
1.67518e-09
1.60419e-09
1.65916e-09
1.59668e-09
7.59662e-10
8.47237e-10
7.0418e-10
6.65872e-10
7.30793e-10
7.13182e-10
6.80764e-10
6.85739e-10
7.0069e-10
7.09673e-10
7.1805e-10
7.31213e-10
7.4914e-10
7.68139e-10
7.88308e-10
8.12009e-10
8.38179e-10
8.64666e-10
8.92601e-10
9.22808e-10
9.53856e-10
9.86642e-10
1.02149e-09
1.05933e-09
1.09572e-09
1.1287e-09
1.15546e-09
1.18072e-09
1.21191e-09
1.24954e-09
1.28743e-09
1.32319e-09
1.35602e-09
1.38786e-09
1.42008e-09
1.45006e-09
1.47985e-09
1.50749e-09
1.53391e-09
1.55928e-09
1.58246e-09
1.60425e-09
1.62536e-09
1.64266e-09
1.65481e-09
1.66639e-09
1.68415e-09
1.69859e-09
1.68615e-09
1.67988e-09
1.71041e-09
1.67561e-09
1.67687e-09
1.664e-09
1.61252e-09
1.58904e-09
7.759e-10
8.60382e-10
7.18738e-10
6.79607e-10
7.43845e-10
7.25457e-10
6.92142e-10
6.9648e-10
7.10552e-10
7.18376e-10
7.26013e-10
7.3871e-10
7.5528e-10
7.74016e-10
7.94228e-10
8.16963e-10
8.4098e-10
8.66076e-10
8.93656e-10
9.23424e-10
9.5403e-10
9.86277e-10
1.02113e-09
1.05784e-09
1.09214e-09
1.12395e-09
1.15358e-09
1.18097e-09
1.21126e-09
1.24722e-09
1.28388e-09
1.31982e-09
1.35388e-09
1.38595e-09
1.41784e-09
1.45009e-09
1.47919e-09
1.50699e-09
1.53388e-09
1.55904e-09
1.58225e-09
1.60457e-09
1.62677e-09
1.64558e-09
1.65808e-09
1.66904e-09
1.68763e-09
1.70274e-09
1.69095e-09
1.68285e-09
1.71148e-09
1.70205e-09
1.6915e-09
1.56421e-09
1.68377e-09
1.60088e-09
7.85191e-10
8.85306e-10
7.30754e-10
6.86266e-10
7.52916e-10
7.33309e-10
6.99408e-10
7.03162e-10
7.16798e-10
7.24394e-10
7.31978e-10
7.43948e-10
7.59669e-10
7.78007e-10
7.98686e-10
8.20634e-10
8.43963e-10
8.69315e-10
8.96441e-10
9.24179e-10
9.5339e-10
9.83528e-10
1.01205e-09
1.03975e-09
1.07011e-09
1.10567e-09
1.14811e-09
1.19047e-09
1.22825e-09
1.25947e-09
1.28827e-09
1.31955e-09
1.35376e-09
1.3866e-09
1.418e-09
1.44933e-09
1.47852e-09
1.50727e-09
1.5353e-09
1.56056e-09
1.58423e-09
1.60678e-09
1.62841e-09
1.64752e-09
1.66101e-09
1.67294e-09
1.69252e-09
1.7092e-09
1.69777e-09
1.69144e-09
1.72501e-09
1.69527e-09
1.68981e-09
1.68621e-09
1.64426e-09
1.60692e-09
7.85297e-10
8.74565e-10
7.26875e-10
6.87953e-10
7.57951e-10
7.36889e-10
7.02726e-10
7.06576e-10
7.19974e-10
7.27327e-10
7.33864e-10
7.45096e-10
7.60266e-10
7.78052e-10
7.97417e-10
8.18638e-10
8.4171e-10
8.66997e-10
8.93579e-10
9.21478e-10
9.50675e-10
9.81646e-10
1.01337e-09
1.04652e-09
1.07961e-09
1.11305e-09
1.14723e-09
1.182e-09
1.21672e-09
1.25031e-09
1.28298e-09
1.31759e-09
1.35227e-09
1.38593e-09
1.41826e-09
1.45024e-09
1.4804e-09
1.5098e-09
1.53798e-09
1.56462e-09
1.58925e-09
1.61285e-09
1.63519e-09
1.65469e-09
1.66874e-09
1.68161e-09
1.70217e-09
1.71933e-09
1.70879e-09
1.70239e-09
1.73484e-09
1.73079e-09
1.71235e-09
1.57595e-09
1.7438e-09
1.63688e-09
7.79056e-10
8.75975e-10
7.29673e-10
6.85722e-10
7.58107e-10
7.3728e-10
7.02938e-10
7.0656e-10
7.19935e-10
7.27138e-10
7.33719e-10
7.44658e-10
7.59636e-10
7.76919e-10
7.96209e-10
8.17183e-10
8.40012e-10
8.64597e-10
8.91079e-10
9.18727e-10
9.47861e-10
9.78144e-10
1.01009e-09
1.04294e-09
1.07654e-09
1.10986e-09
1.1439e-09
1.17791e-09
1.21303e-09
1.2475e-09
1.28232e-09
1.31748e-09
1.3529e-09
1.38668e-09
1.42013e-09
1.45231e-09
1.48369e-09
1.51372e-09
1.54281e-09
1.5697e-09
1.59509e-09
1.61948e-09
1.64316e-09
1.66365e-09
1.67863e-09
1.69243e-09
1.71384e-09
1.73207e-09
1.7223e-09
1.7194e-09
1.75884e-09
1.7274e-09
1.72329e-09
1.74736e-09
1.68305e-09
1.65683e-09
7.65878e-10
8.49725e-10
7.19288e-10
6.74403e-10
7.52022e-10
7.3395e-10
7.00899e-10
7.0493e-10
7.18677e-10
7.26326e-10
7.32948e-10
7.43876e-10
7.58896e-10
7.76462e-10
7.95672e-10
8.16716e-10
8.39166e-10
8.63609e-10
8.89409e-10
9.16636e-10
9.45074e-10
9.75311e-10
1.00646e-09
1.03885e-09
1.07205e-09
1.10626e-09
1.14065e-09
1.17582e-09
1.21119e-09
1.24699e-09
1.28202e-09
1.31754e-09
1.35263e-09
1.38702e-09
1.4208e-09
1.45389e-09
1.4858e-09
1.51666e-09
1.54629e-09
1.57414e-09
1.6005e-09
1.62568e-09
1.64998e-09
1.67118e-09
1.6876e-09
1.7024e-09
1.72556e-09
1.74483e-09
1.73756e-09
1.73538e-09
1.77125e-09
1.77344e-09
1.76626e-09
1.61727e-09
1.81192e-09
1.70524e-09
7.43852e-10
8.26656e-10
7.17017e-10
6.61233e-10
7.39797e-10
7.26691e-10
6.96623e-10
7.01883e-10
7.16375e-10
7.24432e-10
7.3122e-10
7.42642e-10
7.57966e-10
7.75583e-10
7.94063e-10
8.14212e-10
8.36743e-10
8.61582e-10
8.87299e-10
9.14698e-10
9.43018e-10
9.73573e-10
1.00387e-09
1.03655e-09
1.06949e-09
1.10499e-09
1.13952e-09
1.17542e-09
1.20979e-09
1.24595e-09
1.28007e-09
1.31586e-09
1.34977e-09
1.38517e-09
1.41851e-09
1.45338e-09
1.48501e-09
1.51789e-09
1.54726e-09
1.57716e-09
1.60335e-09
1.63058e-09
1.65485e-09
1.67936e-09
1.69669e-09
1.71475e-09
1.73937e-09
1.76241e-09
1.75477e-09
1.75811e-09
1.80464e-09
1.7772e-09
1.78414e-09
1.83633e-09
1.76103e-09
1.73865e-09
7.15862e-10
7.9027e-10
7.07726e-10
6.45112e-10
7.25295e-10
7.1388e-10
6.85456e-10
6.91043e-10
7.06031e-10
7.14889e-10
7.22971e-10
7.34082e-10
7.49208e-10
7.64965e-10
7.84941e-10
8.04752e-10
8.28699e-10
8.51423e-10
8.79402e-10
9.05663e-10
9.36261e-10
9.65086e-10
9.98518e-10
1.03015e-09
1.06604e-09
1.09884e-09
1.13604e-09
1.16899e-09
1.2072e-09
1.24212e-09
1.28084e-09
1.31541e-09
1.35439e-09
1.3882e-09
1.42628e-09
1.45895e-09
1.4957e-09
1.5261e-09
1.56031e-09
1.58771e-09
1.61928e-09
1.64509e-09
1.67389e-09
1.69663e-09
1.71756e-09
1.73378e-09
1.76272e-09
1.78357e-09
1.78069e-09
1.78387e-09
1.82911e-09
1.84374e-09
1.83775e-09
1.65016e-09
1.92003e-09
1.80402e-09
6.83404e-10
7.61428e-10
6.94599e-10
6.19111e-10
6.94976e-10
6.84395e-10
6.58025e-10
6.64589e-10
6.78616e-10
6.87233e-10
6.95252e-10
7.0722e-10
7.23017e-10
7.38515e-10
7.56691e-10
7.75041e-10
7.99574e-10
8.23045e-10
8.51472e-10
8.77567e-10
9.09936e-10
9.39003e-10
9.75154e-10
1.00593e-09
1.04594e-09
1.079e-09
1.12218e-09
1.1565e-09
1.20246e-09
1.2382e-09
1.28466e-09
1.32142e-09
1.36999e-09
1.40273e-09
1.44674e-09
1.4781e-09
1.52151e-09
1.5503e-09
1.59026e-09
1.6164e-09
1.654e-09
1.6796e-09
1.71345e-09
1.73385e-09
1.75813e-09
1.77235e-09
1.80435e-09
1.82306e-09
1.82251e-09
1.8264e-09
1.87839e-09
1.8408e-09
1.84753e-09
1.93253e-09
1.87576e-09
1.85338e-09
6.48091e-10
7.29243e-10
6.5964e-10
6.19139e-10
6.93747e-10
6.8255e-10
6.59323e-10
6.69772e-10
6.79667e-10
6.90222e-10
6.94987e-10
7.10716e-10
7.1948e-10
7.43608e-10
7.562e-10
7.87411e-10
7.99395e-10
8.34296e-10
8.48673e-10
8.9041e-10
9.06113e-10
9.53176e-10
9.68885e-10
1.02063e-09
1.0376e-09
1.0937e-09
1.11073e-09
1.16997e-09
1.18753e-09
1.24909e-09
1.26531e-09
1.32868e-09
1.34507e-09
1.4099e-09
1.42426e-09
1.48804e-09
1.49941e-09
1.55975e-09
1.5699e-09
1.62679e-09
1.63325e-09
1.68411e-09
1.69074e-09
1.73927e-09
1.74631e-09
1.78537e-09
1.79363e-09
1.83182e-09
1.8206e-09
1.8462e-09
1.87744e-09
1.89352e-09
1.92433e-09
1.7965e-09
1.97867e-09
1.927e-09
6.11268e-10
7.05965e-10
6.06419e-10
6.18279e-10
7.07386e-10
6.99246e-10
6.86422e-10
7.01452e-10
7.20541e-10
7.30995e-10
7.42543e-10
7.54752e-10
7.74801e-10
7.91764e-10
8.13131e-10
8.31972e-10
8.57366e-10
8.76067e-10
9.05022e-10
9.25715e-10
9.59682e-10
9.8302e-10
1.01908e-09
1.04463e-09
1.08105e-09
1.10625e-09
1.14163e-09
1.16667e-09
1.20446e-09
1.22843e-09
1.26117e-09
1.28071e-09
1.3144e-09
1.34287e-09
1.38772e-09
1.42202e-09
1.46509e-09
1.49518e-09
1.53576e-09
1.56872e-09
1.60631e-09
1.63224e-09
1.66303e-09
1.68444e-09
1.71031e-09
1.73269e-09
1.76948e-09
1.79865e-09
1.80709e-09
1.82859e-09
1.89939e-09
1.88787e-09
1.88037e-09
2.02849e-09
1.93669e-09
1.97796e-09
5.71716e-10
6.30322e-10
5.14541e-10
5.38016e-10
6.25148e-10
6.14246e-10
6.00981e-10
6.15621e-10
6.42357e-10
6.49094e-10
6.64338e-10
6.69152e-10
6.96034e-10
6.97528e-10
7.2445e-10
7.25263e-10
7.68853e-10
7.70773e-10
8.23258e-10
8.23348e-10
8.84611e-10
8.83452e-10
9.54792e-10
9.52293e-10
1.03202e-09
1.02835e-09
1.11849e-09
1.1139e-09
1.20784e-09
1.19851e-09
1.29049e-09
1.27243e-09
1.36483e-09
1.35282e-09
1.45788e-09
1.45182e-09
1.55451e-09
1.54116e-09
1.64689e-09
1.64108e-09
1.73825e-09
1.73267e-09
1.81695e-09
1.799e-09
1.86513e-09
1.85503e-09
1.93035e-09
1.91939e-09
1.94553e-09
1.94765e-09
2.0376e-09
2.01827e-09
2.04534e-09
2.04942e-09
2.12466e-09
2.05165e-09
5.40276e-10
6.6332e-10
6.1041e-10
5.88044e-10
6.24348e-10
5.93151e-10
5.62141e-10
5.75388e-10
5.79545e-10
5.94906e-10
5.9115e-10
6.16588e-10
6.1637e-10
6.55423e-10
6.52589e-10
7.03764e-10
6.99608e-10
7.63987e-10
7.52948e-10
8.29921e-10
8.12328e-10
9.00002e-10
8.76674e-10
9.80718e-10
9.52715e-10
1.06455e-09
1.03466e-09
1.15678e-09
1.12699e-09
1.27123e-09
1.26109e-09
1.43644e-09
1.43098e-09
1.58105e-09
1.52901e-09
1.64865e-09
1.5909e-09
1.70861e-09
1.65571e-09
1.7399e-09
1.6777e-09
1.78617e-09
1.75432e-09
1.85062e-09
1.81945e-09
1.90223e-09
1.88103e-09
1.94084e-09
1.90537e-09
1.9594e-09
1.97043e-09
1.94913e-09
1.94109e-09
2.0059e-09
2.08376e-09
2.10372e-09
4.96518e-10
5.23346e-10
5.95431e-10
5.62673e-10
6.15708e-10
6.38449e-10
6.52747e-10
6.62176e-10
6.74027e-10
6.81238e-10
6.98555e-10
7.07723e-10
7.27758e-10
7.41365e-10
7.7168e-10
7.84794e-10
8.13708e-10
8.25992e-10
8.61095e-10
8.80061e-10
9.28225e-10
9.51992e-10
9.98903e-10
1.01764e-09
1.06448e-09
1.0822e-09
1.13811e-09
1.15529e-09
1.20768e-09
1.21584e-09
1.25531e-09
1.24867e-09
1.28956e-09
1.30494e-09
1.36854e-09
1.39679e-09
1.46671e-09
1.49989e-09
1.56279e-09
1.59818e-09
1.66045e-09
1.68581e-09
1.72721e-09
1.74577e-09
1.78447e-09
1.80662e-09
1.84648e-09
1.86988e-09
1.89473e-09
1.93368e-09
2.00333e-09
1.99752e-09
2.00414e-09
2.0231e-09
2.25202e-09
2.18376e-09
4.83794e-10
5.07185e-10
5.34727e-10
5.40494e-10
5.48766e-10
5.51659e-10
5.56281e-10
5.62981e-10
5.71669e-10
5.80692e-10
5.92666e-10
6.05046e-10
6.20634e-10
6.35822e-10
6.55319e-10
6.74744e-10
7.00099e-10
7.24702e-10
7.55013e-10
7.83014e-10
8.17682e-10
8.49107e-10
8.87166e-10
9.23275e-10
9.69754e-10
1.01254e-09
1.06392e-09
1.11039e-09
1.16531e-09
1.2111e-09
1.26927e-09
1.32743e-09
1.39617e-09
1.45526e-09
1.51625e-09
1.56115e-09
1.61117e-09
1.65347e-09
1.69961e-09
1.73267e-09
1.77046e-09
1.80543e-09
1.84606e-09
1.87897e-09
1.91362e-09
1.94059e-09
1.96977e-09
1.99305e-09
2.01431e-09
2.0306e-09
2.05429e-09
2.07944e-09
2.10573e-09
2.12221e-09
2.17792e-09
2.22752e-09
)
;

boundaryField
{
    top
    {
        type            zeroGradient;
    }
    bottom
    {
        type            zeroGradient;
    }
    rotatingWall
    {
        type            zeroGradient;
    }
    wall
    {
        type            zeroGradient;
    }
    frontAndBack
    {
        type            empty;
    }
}


// ************************************************************************* //
