/*--------------------------------*- C++ -*----------------------------------*\
| =========                 |                                                 |
| \\      /  F ield         | OpenFOAM: The Open Source CFD Toolbox           |
|  \\    /   O peration     | Version:  5.0                                   |
|   \\  /    A nd           | Web:      www.OpenFOAM.org                      |
|    \\/     M anipulation  |                                                 |
\*---------------------------------------------------------------------------*/
FoamFile
{
    version     2.0;
    format      ascii;
    class       surfaceScalarField;
    location    "181";
    object      phi;
}
// * * * * * * * * * * * * * * * * * * * * * * * * * * * * * * * * * * * * * //

dimensions      [0 3 -1 0 0 0 0];

internalField   nonuniform List<scalar> 
3052
(
8.3207e-22
-5.56306e-21
5.8872e-21
-6.57433e-21
3.38257e-20
-2.90623e-20
5.82986e-20
-2.5972e-20
8.23204e-20
-2.50142e-20
1.15186e-19
-3.37986e-20
1.49872e-19
-3.53904e-20
1.85059e-19
-3.58623e-20
2.22099e-19
-3.78646e-20
2.60302e-19
-3.89868e-20
2.98565e-19
-3.89909e-20
3.36633e-19
-3.87679e-20
3.74212e-19
-3.82515e-20
4.10827e-19
-3.72509e-20
4.4607e-19
-3.59225e-20
4.79693e-19
-3.42867e-20
5.11299e-19
-3.22767e-20
5.40748e-19
-3.00757e-20
5.67685e-19
-2.75723e-20
5.92023e-19
-2.49094e-20
6.13457e-19
-2.19832e-20
6.32058e-19
-1.90451e-20
6.47373e-19
-1.5717e-20
6.59599e-19
-1.24944e-20
6.68571e-19
-9.21847e-21
6.74459e-19
-6.04024e-21
6.76799e-19
-2.48274e-21
6.75911e-19
8.50807e-22
6.71301e-19
4.55997e-21
6.63614e-19
7.71596e-21
6.52776e-19
1.09484e-20
6.39254e-19
1.38722e-20
6.22635e-19
1.71154e-20
6.03541e-19
1.97551e-20
5.817e-19
2.25403e-20
5.57697e-19
2.47951e-20
5.31212e-19
2.72441e-20
5.02925e-19
2.91011e-20
4.72683e-19
3.10315e-20
4.40939e-19
3.25108e-20
4.07729e-19
3.38411e-20
3.73687e-19
3.46529e-20
3.38774e-19
3.54548e-20
3.03564e-19
3.57758e-20
2.68235e-19
3.58925e-20
2.33336e-19
3.55084e-20
1.99084e-19
3.48868e-20
1.65959e-19
3.37669e-20
1.34303e-19
3.22946e-20
1.04729e-19
3.02422e-20
7.72911e-20
2.78723e-20
5.31557e-20
2.46868e-20
3.32152e-20
2.08613e-20
1.50945e-20
1.81493e-20
4.69588e-21
1.06481e-20
4.70837e-21
9.81988e-21
-1.67231e-20
2.16137e-20
-1.99096e-20
2.77116e-20
-4.07821e-20
4.75745e-20
-4.84058e-20
7.76565e-20
-5.81037e-20
1.05783e-19
-6.39301e-20
1.36472e-19
-6.77801e-20
1.70237e-19
-7.1636e-20
2.04789e-19
-7.43261e-20
2.39716e-19
-7.58428e-20
2.75249e-19
-7.63371e-20
3.10801e-19
-7.59931e-20
3.45757e-19
-7.48069e-20
3.79712e-19
-7.2944e-20
4.125e-19
-7.03639e-20
4.43683e-19
-6.71655e-20
4.73146e-19
-6.33236e-20
5.00485e-19
-5.90149e-20
5.25635e-19
-5.41288e-20
5.48237e-19
-4.8888e-20
5.68316e-19
-4.31782e-20
5.85482e-19
-3.72577e-20
6.0001e-19
-3.09454e-20
6.11571e-19
-2.47216e-20
6.2028e-19
-1.83237e-20
6.2571e-19
-1.18585e-20
6.28097e-19
-5.00534e-21
6.27069e-19
1.7014e-21
6.23103e-19
8.58342e-21
6.15908e-19
1.51131e-20
6.06004e-19
2.15633e-20
5.9335e-19
2.75573e-20
5.78368e-19
3.3612e-20
5.60665e-19
3.91304e-20
5.40654e-19
4.44822e-20
5.18149e-19
4.91568e-20
4.93793e-19
5.36409e-20
4.67373e-19
5.74644e-20
4.39391e-19
6.09405e-20
4.09822e-19
6.37348e-20
3.79092e-19
6.61866e-20
3.47136e-19
6.79471e-20
3.14661e-19
6.93231e-20
2.81775e-19
7.00104e-20
2.48937e-19
7.0199e-20
2.16328e-19
6.96299e-20
1.84415e-19
6.83675e-20
1.53541e-19
6.62495e-20
1.24166e-19
6.3356e-20
9.63243e-20
5.92956e-20
7.11442e-20
5.48862e-20
4.85663e-20
4.89777e-20
2.86813e-20
4.09303e-20
1.55877e-20
3.3026e-20
4.50527e-21
2.14456e-20
9.19829e-21
-2.06461e-21
-1.46353e-20
1.10507e-20
-3.71843e-20
2.57931e-20
-5.68562e-20
4.62089e-20
-7.08695e-20
6.8779e-20
-8.14763e-20
9.52345e-20
-9.0893e-20
1.24153e-19
-9.72074e-20
1.54859e-19
-1.02708e-19
1.86693e-19
-1.06617e-19
2.19272e-19
-1.08717e-19
2.52148e-19
-1.09422e-19
2.84828e-19
-1.08952e-19
3.17053e-19
-1.07426e-19
3.4853e-19
-1.04727e-19
3.78826e-19
-1.01021e-19
4.0773e-19
-9.63597e-20
4.34999e-19
-9.08745e-20
4.6038e-19
-8.45483e-20
4.83656e-19
-7.75833e-20
5.04696e-19
-6.99895e-20
5.23321e-19
-6.19109e-20
5.39429e-19
-5.33401e-20
5.52918e-19
-4.45035e-20
5.63675e-19
-3.54352e-20
5.71574e-19
-2.62532e-20
5.76604e-19
-1.68103e-20
5.78791e-19
-7.21111e-21
5.78105e-19
2.50278e-21
5.74611e-19
1.21291e-20
5.68385e-19
2.15226e-20
5.59516e-19
3.06009e-20
5.48004e-19
3.94073e-20
5.34003e-19
4.7865e-20
5.17618e-19
5.58388e-20
4.99049e-19
6.32822e-20
4.7837e-19
7.02051e-20
4.55759e-19
7.65176e-20
4.31369e-19
8.21736e-20
4.0541e-19
8.71404e-20
3.78025e-19
9.13953e-20
3.49483e-19
9.48321e-20
3.20066e-19
9.75652e-20
2.90008e-19
9.95317e-20
2.59543e-19
1.00681e-19
2.29046e-19
1.00873e-19
1.98822e-19
1.00108e-19
1.69212e-19
9.82905e-20
1.40522e-19
9.52686e-20
1.13194e-19
9.10709e-20
8.77325e-20
8.57584e-20
6.41141e-20
7.83476e-20
4.33937e-20
6.96885e-20
2.64633e-20
5.98598e-20
1.17707e-20
4.63661e-20
2.77112e-21
3.08283e-20
1.19853e-20
7.11192e-22
-1.59805e-20
1.18354e-20
-4.90089e-20
2.32001e-20
-6.84957e-20
4.04689e-20
-8.80082e-20
6.22418e-20
-1.0288e-19
8.57318e-20
-1.13747e-19
1.11952e-19
-1.22825e-19
1.40026e-19
-1.30141e-19
1.69153e-19
-1.3483e-19
1.98907e-19
-1.37524e-19
2.29018e-19
-1.38762e-19
2.5906e-19
-1.38325e-19
2.88619e-19
-1.36294e-19
3.17442e-19
-1.32876e-19
3.45273e-19
-1.28155e-19
3.71864e-19
-1.22221e-19
3.96951e-19
-1.15185e-19
4.20335e-19
-1.07177e-19
4.41832e-19
-9.83111e-20
4.6125e-19
-8.8699e-20
4.78459e-19
-7.84363e-20
4.93306e-19
-6.76587e-20
5.05729e-19
-5.64726e-20
5.15602e-19
-4.49716e-20
5.2288e-19
-3.32257e-20
5.27527e-19
-2.12451e-20
5.29643e-19
-9.10325e-21
5.29186e-19
3.06261e-21
5.26274e-19
1.51118e-20
5.20781e-19
2.69461e-20
5.12771e-19
3.8395e-20
5.02221e-19
4.94118e-20
4.894e-19
5.99624e-20
4.74303e-19
7.00333e-20
4.57186e-19
7.95045e-20
4.38083e-19
8.8341e-20
4.17255e-19
9.64106e-20
3.94763e-19
1.03713e-19
3.70862e-19
1.10134e-19
3.45712e-19
1.15661e-19
3.19547e-19
1.20269e-19
2.92518e-19
1.23913e-19
2.64913e-19
1.2648e-19
2.36952e-19
1.27954e-19
2.08923e-19
1.28256e-19
1.8109e-19
1.27301e-19
1.53793e-19
1.24943e-19
1.27474e-19
1.21225e-19
1.02505e-19
1.15918e-19
7.88995e-20
1.08557e-19
5.75779e-20
9.98356e-20
3.86686e-20
8.92026e-20
2.20757e-20
7.44775e-20
1.12489e-20
5.85866e-20
3.48815e-21
3.82443e-20
1.54603e-20
4.72133e-21
-2.09202e-20
9.21902e-21
-5.24317e-20
2.17562e-20
-8.02992e-20
3.68483e-20
-1.02213e-19
5.54689e-20
-1.20632e-19
7.66144e-20
-1.34504e-19
1.00179e-19
-1.45946e-19
1.25382e-19
-1.54594e-19
1.51706e-19
-1.603e-19
1.78774e-19
-1.63863e-19
2.06045e-19
-1.65395e-19
2.33227e-19
-1.6489e-19
2.60084e-19
-1.62522e-19
2.86307e-19
-1.58469e-19
3.11639e-19
-1.5282e-19
3.35856e-19
-1.45756e-19
3.58707e-19
-1.37367e-19
3.80011e-19
-1.27842e-19
3.99594e-19
-1.17283e-19
4.17327e-19
-1.05851e-19
4.33034e-19
-9.36532e-20
4.46615e-19
-8.08341e-20
4.5794e-19
-6.74767e-20
4.66959e-19
-5.37402e-20
4.73595e-19
-3.96681e-20
4.77905e-19
-2.53758e-20
4.79869e-19
-1.09445e-20
4.79564e-19
3.47386e-21
4.76973e-19
1.77559e-20
4.72122e-19
3.17291e-20
4.64933e-19
4.52853e-20
4.55461e-19
5.83823e-20
4.43758e-19
7.09568e-20
4.30063e-19
8.29397e-20
4.14468e-19
9.42415e-20
3.97141e-19
1.04795e-19
3.78154e-19
1.14503e-19
3.57715e-19
1.2329e-19
3.35925e-19
1.31114e-19
3.13019e-19
1.3788e-19
2.89199e-19
1.43517e-19
2.64675e-19
1.4794e-19
2.3956e-19
1.51126e-19
2.14123e-19
1.5295e-19
1.88587e-19
1.5334e-19
1.63257e-19
1.52205e-19
1.38465e-19
1.49463e-19
1.14533e-19
1.44862e-19
9.17636e-20
1.38396e-19
7.06879e-20
1.30147e-19
5.12229e-20
1.18982e-19
3.41606e-20
1.05151e-19
2.0517e-20
8.98266e-20
8.50788e-21
6.93394e-20
1.46696e-21
4.55772e-20
1.69525e-20
1.91769e-21
-2.23453e-20
8.69138e-21
-5.79138e-20
1.90824e-20
-8.94287e-20
3.30543e-20
-1.1534e-19
4.91684e-20
-1.36623e-19
6.79267e-20
-1.53269e-19
8.87844e-20
-1.66647e-19
1.111e-19
-1.76615e-19
1.34506e-19
-1.83455e-19
1.58637e-19
-1.87782e-19
1.83043e-19
-1.89615e-19
2.07446e-19
-1.89098e-19
2.31567e-19
-1.86429e-19
2.55131e-19
-1.81784e-19
2.77924e-19
-1.75345e-19
2.99686e-19
-1.67265e-19
3.20232e-19
-1.57693e-19
3.39377e-19
-1.46795e-19
3.56993e-19
-1.34718e-19
3.7291e-19
-1.21619e-19
3.87043e-19
-1.07645e-19
3.99254e-19
-9.29299e-20
4.09478e-19
-7.76112e-20
4.17613e-19
-6.18224e-20
4.23657e-19
-4.5664e-20
4.2757e-19
-2.9259e-20
4.29406e-19
-1.27309e-20
4.29162e-19
3.78367e-21
4.26866e-19
2.01136e-20
4.22494e-19
3.61139e-20
4.16062e-19
5.16627e-20
4.07591e-19
6.66742e-20
3.97206e-19
8.11007e-20
3.84984e-19
9.48544e-20
3.71036e-19
1.07847e-19
3.55477e-19
1.19979e-19
3.38453e-19
1.31179e-19
3.20069e-19
1.4134e-19
3.00515e-19
1.5039e-19
2.79947e-19
1.58248e-19
2.58543e-19
1.64814e-19
2.36444e-19
1.7e-19
2.13866e-19
1.73715e-19
1.90989e-19
1.75846e-19
1.68067e-19
1.76314e-19
1.45359e-19
1.75003e-19
1.23139e-19
1.71744e-19
1.01714e-19
1.66509e-19
8.14925e-20
1.5911e-19
6.25746e-20
1.48915e-19
4.54708e-20
1.36403e-19
3.03929e-20
1.21344e-19
1.71583e-20
1.01555e-19
8.57845e-21
7.87969e-20
2.76368e-21
5.14319e-20
1.97154e-20
1.3609e-21
-2.33249e-20
8.03675e-21
-6.36683e-20
1.7082e-20
-9.78335e-20
2.88578e-20
-1.26947e-19
4.28248e-20
-1.50637e-19
5.91706e-20
-1.69677e-19
7.73661e-20
-1.84819e-19
9.6917e-20
-1.96161e-19
1.17515e-19
-2.04075e-19
1.38729e-19
-2.09024e-19
1.60234e-19
-2.11144e-19
1.81767e-19
-2.10634e-19
2.03073e-19
-2.07708e-19
2.23929e-19
-2.02581e-19
2.44096e-19
-1.95451e-19
2.63362e-19
-1.86477e-19
2.81551e-19
-1.7585e-19
2.98513e-19
-1.63733e-19
3.14103e-19
-1.50309e-19
3.28214e-19
-1.35721e-19
3.40736e-19
-1.20152e-19
3.51575e-19
-1.03752e-19
3.60645e-19
-8.66809e-20
3.67886e-19
-6.90614e-20
3.73259e-19
-5.10536e-20
3.76769e-19
-3.27717e-20
3.78426e-19
-1.43815e-20
3.78259e-19
3.97663e-21
3.7626e-19
2.21452e-20
3.72438e-19
3.99808e-20
3.6678e-19
5.7334e-20
3.59343e-19
7.412e-20
3.50179e-19
9.02405e-20
3.3938e-19
1.056e-19
3.27036e-19
1.20106e-19
3.13274e-19
1.3367e-19
2.98199e-19
1.46179e-19
2.81933e-19
1.57545e-19
2.64617e-19
1.67666e-19
2.4641e-19
1.76461e-19
2.27455e-19
1.83818e-19
2.07912e-19
1.89637e-19
1.87939e-19
1.93791e-19
1.67719e-19
1.96184e-19
1.47463e-19
1.96696e-19
1.27408e-19
1.95206e-19
1.07816e-19
1.91586e-19
8.89797e-20
1.85619e-19
7.11157e-20
1.77109e-19
5.45931e-20
1.66113e-19
3.95699e-20
1.51799e-19
2.63497e-20
1.33769e-19
1.57279e-20
1.13061e-19
6.58593e-21
8.72554e-20
1.42116e-21
5.65884e-20
2.1136e-20
2.0243e-21
-2.51964e-20
6.75533e-21
-6.82979e-20
1.43658e-20
-1.05372e-19
2.42727e-20
-1.36823e-19
3.63861e-20
-1.62784e-19
5.05407e-20
-1.83838e-19
6.61596e-20
-2.00477e-19
8.29416e-20
-2.1304e-19
1.0069e-19
-2.21897e-19
1.18993e-19
-2.27397e-19
1.37581e-19
-2.29787e-19
1.56201e-19
-2.29295e-19
1.74652e-19
-2.26169e-19
1.92716e-19
-2.20636e-19
2.10185e-19
-2.12903e-19
2.2689e-19
-2.03164e-19
2.42683e-19
-1.9162e-19
2.5741e-19
-1.78456e-19
2.70958e-19
-1.6385e-19
2.83223e-19
-1.47978e-19
2.94108e-19
-1.31032e-19
3.03531e-19
-1.13168e-19
3.11421e-19
-9.45606e-20
3.17723e-19
-7.53718e-20
3.22412e-19
-5.57605e-20
3.25487e-19
-3.58744e-20
3.26957e-19
-1.58661e-20
3.26821e-19
4.10382e-21
3.25105e-19
2.38838e-20
3.21797e-19
4.33154e-20
3.16918e-19
6.22626e-20
3.10483e-19
8.05909e-20
3.02553e-19
9.81953e-20
2.93198e-19
1.14964e-19
2.82514e-19
1.30803e-19
2.70588e-19
1.45596e-19
2.57527e-19
1.59241e-19
2.4343e-19
1.71637e-19
2.28417e-19
1.82682e-19
2.12619e-19
1.9227e-19
1.96178e-19
2.00289e-19
1.79223e-19
2.0662e-19
1.61898e-19
2.11148e-19
1.44363e-19
2.1375e-19
1.26805e-19
2.14297e-19
1.09454e-19
2.12642e-19
9.25485e-20
2.08612e-19
7.62973e-20
2.02068e-19
6.09642e-20
1.92813e-19
4.67964e-20
1.80335e-19
3.40001e-20
1.64663e-19
2.26607e-20
1.45701e-19
1.27793e-20
1.2187e-19
6.15856e-21
9.38289e-20
1.78086e-21
6.08375e-20
2.29087e-20
1.68154e-21
-2.69524e-20
5.45938e-21
-7.20576e-20
1.17825e-20
-1.11642e-19
2.01167e-20
-1.45128e-19
3.03673e-20
-1.73004e-19
4.21552e-20
-1.9566e-19
5.51697e-20
-2.13587e-19
6.92382e-20
-2.27169e-19
8.40826e-20
-2.36801e-19
9.94299e-20
-2.42795e-19
1.15062e-19
-2.45455e-19
1.30763e-19
-2.45006e-19
1.46326e-19
-2.41728e-19
1.61556e-19
-2.35861e-19
1.76301e-19
-2.27632e-19
1.90414e-19
-2.17254e-19
2.03752e-19
-2.04936e-19
2.16199e-19
-1.9088e-19
2.27652e-19
-1.75284e-19
2.38024e-19
-1.58338e-19
2.47229e-19
-1.40223e-19
2.55201e-19
-1.21132e-19
2.61874e-19
-1.01246e-19
2.67213e-19
-8.07407e-20
2.71187e-19
-5.97772e-20
2.73799e-19
-3.85229e-20
2.7505e-19
-1.71384e-20
2.74954e-19
4.21385e-21
2.73504e-19
2.53596e-20
2.70713e-19
4.61477e-20
2.66593e-19
6.64158e-20
2.6117e-19
8.60399e-20
2.54481e-19
1.04892e-19
2.46599e-19
1.22854e-19
2.37591e-19
1.39809e-19
2.27534e-19
1.55649e-19
2.16503e-19
1.70259e-19
2.04603e-19
1.83528e-19
1.9193e-19
1.95347e-19
1.78593e-19
2.05605e-19
1.64701e-19
2.14175e-19
1.50379e-19
2.20942e-19
1.35749e-19
2.25779e-19
1.20953e-19
2.28547e-19
1.06159e-19
2.29103e-19
9.15583e-20
2.27297e-19
7.73603e-20
2.22959e-19
6.37674e-20
2.15864e-19
5.09176e-20
2.05749e-19
3.90782e-20
1.92503e-19
2.84223e-20
1.75665e-19
1.89422e-20
1.54583e-19
1.11565e-20
1.29649e-19
4.80617e-21
9.98333e-20
9.78672e-22
6.44187e-20
2.38794e-20
1.03669e-21
-2.7952e-20
4.29977e-21
-7.5243e-20
9.45442e-21
-1.16697e-19
1.62592e-20
-1.51854e-19
2.44603e-20
-1.81206e-19
3.38544e-20
-2.05116e-19
4.43277e-20
-2.24108e-19
5.56794e-20
-2.38563e-19
6.76711e-20
-2.4883e-19
8.01048e-20
-2.55245e-19
9.27712e-20
-2.58125e-19
1.05509e-19
-2.57731e-19
1.18141e-19
-2.54348e-19
1.30522e-19
-2.48221e-19
1.42507e-19
-2.39598e-19
1.53984e-19
-2.28706e-19
1.64834e-19
-2.15762e-19
1.74971e-19
-2.00991e-19
1.84298e-19
-1.84588e-19
1.92745e-19
-1.66765e-19
2.00244e-19
-1.47712e-19
2.06739e-19
-1.2764e-19
2.12177e-19
-1.06714e-19
2.1652e-19
-8.51342e-20
2.19753e-19
-6.3066e-20
2.21881e-19
-4.06934e-20
2.22911e-19
-1.81763e-20
2.2285e-19
4.30143e-21
2.21687e-19
2.65692e-20
2.19423e-19
4.84535e-20
2.16063e-19
6.98002e-20
2.11635e-19
9.04647e-20
2.06193e-19
1.10323e-19
1.99777e-19
1.2925e-19
1.92442e-19
1.47122e-19
1.84245e-19
1.63815e-19
1.75266e-19
1.79211e-19
1.65578e-19
1.93195e-19
1.55264e-19
2.05648e-19
1.44408e-19
2.16446e-19
1.33107e-19
2.25469e-19
1.21459e-19
2.32587e-19
1.0957e-19
2.37667e-19
9.75562e-20
2.4057e-19
8.55579e-20
2.41133e-19
7.37436e-20
2.39186e-19
6.22885e-20
2.34544e-19
5.13146e-20
2.26999e-19
4.09954e-20
2.16353e-19
3.1495e-20
2.02181e-19
2.29338e-20
1.84173e-19
1.53741e-20
1.62405e-19
8.81288e-21
1.35815e-19
3.98805e-21
1.04086e-19
1.14296e-21
6.72993e-20
2.50209e-20
8.16857e-22
-2.87505e-20
3.32437e-21
-7.76202e-20
7.21388e-21
-1.20479e-19
1.23468e-20
-1.56926e-19
1.85224e-20
-1.87401e-19
2.56759e-20
-2.12308e-19
3.36705e-20
-2.32134e-19
4.23279e-20
-2.47246e-19
5.14821e-20
-2.57993e-19
6.09785e-20
-2.64748e-19
7.06847e-20
-2.67817e-19
8.04528e-20
-2.67481e-19
9.01323e-20
-2.64009e-19
9.96306e-20
-2.577e-19
1.08841e-19
-2.48784e-19
1.17658e-19
-2.37501e-19
1.26e-19
-2.24081e-19
1.33789e-19
-2.0876e-19
1.40965e-19
-1.91743e-19
1.47467e-19
-1.73248e-19
1.53239e-19
-1.53482e-19
1.58229e-19
-1.32643e-19
1.62409e-19
-1.10939e-19
1.65757e-19
-8.8544e-20
1.6826e-19
-6.56362e-20
1.69914e-19
-4.23826e-20
1.70719e-19
-1.89694e-20
1.70663e-19
4.40166e-21
1.69746e-19
2.75292e-20
1.67985e-19
5.02421e-20
1.65389e-19
7.2402e-20
1.6198e-19
9.38696e-20
1.57782e-19
1.14508e-19
1.52833e-19
1.3418e-19
1.47175e-19
1.52751e-19
1.40863e-19
1.70099e-19
1.3395e-19
1.86101e-19
1.26496e-19
2.00634e-19
1.18559e-19
2.13568e-19
1.1021e-19
2.24784e-19
1.01522e-19
2.34149e-19
9.25746e-20
2.41529e-19
8.3453e-20
2.46791e-19
7.42461e-20
2.49792e-19
6.50661e-20
2.5034e-19
5.60425e-20
2.4827e-19
4.73124e-20
2.43411e-19
3.90071e-20
2.35528e-19
3.11645e-20
2.24279e-19
2.39689e-20
2.09514e-19
1.75884e-20
1.9102e-19
1.17531e-20
1.67923e-19
6.76734e-21
1.40211e-19
3.15619e-21
1.07873e-19
7.52301e-22
6.9306e-20
2.57545e-20
5.80563e-22
-2.92841e-20
2.28098e-21
-7.92609e-20
4.96857e-21
-1.2307e-19
8.49538e-21
-1.60407e-19
1.27526e-20
-1.91652e-19
1.76847e-20
-2.17259e-19
2.31908e-20
-2.37662e-19
2.91634e-20
-2.53229e-19
3.55014e-20
-2.64339e-19
4.20826e-20
-2.71319e-19
4.88044e-20
-2.74527e-19
5.55804e-20
-2.74248e-19
6.23151e-20
-2.70726e-19
6.8927e-20
-2.64294e-19
7.5344e-20
-2.55179e-19
8.14884e-20
-2.43629e-19
8.73062e-20
-2.29889e-19
9.27363e-20
-2.14181e-19
9.77423e-20
-1.96738e-19
1.02273e-19
-1.7777e-19
1.06299e-19
-1.57509e-19
1.0978e-19
-1.36149e-19
1.12706e-19
-1.13893e-19
1.15048e-19
-9.09143e-20
1.16806e-19
-6.73962e-20
1.17963e-19
-4.35182e-20
1.18521e-19
-1.94985e-20
1.18465e-19
4.46678e-21
1.17807e-19
2.81862e-20
1.16545e-19
5.14912e-20
1.14705e-19
7.42328e-20
1.12303e-19
9.62646e-20
1.09354e-19
1.17441e-19
1.05885e-19
1.37629e-19
1.0192e-19
1.56696e-19
9.75014e-20
1.745e-19
9.26633e-20
1.90926e-19
8.74495e-20
2.05834e-19
8.19038e-20
2.19103e-19
7.60749e-20
2.30602e-19
7.0015e-20
2.40198e-19
6.37838e-20
2.47757e-19
5.74451e-20
2.53136e-19
5.1051e-20
2.56192e-19
4.46947e-20
2.56719e-19
3.84731e-20
2.54564e-19
3.24907e-20
2.49523e-19
2.67852e-20
2.41322e-19
2.14632e-20
2.29823e-19
1.66394e-20
2.14656e-19
1.21729e-20
1.95231e-19
8.34252e-21
1.71766e-19
4.938e-21
1.43741e-19
1.87607e-21
1.09866e-19
2.87044e-22
7.09168e-20
2.60373e-20
3.27364e-22
-2.96258e-20
1.28884e-21
-8.01115e-20
2.80057e-21
-1.24485e-19
4.76101e-21
-1.62299e-19
7.12315e-21
-1.93988e-19
9.83822e-21
-2.19984e-19
1.28697e-20
-2.40708e-19
1.61748e-20
-2.56544e-19
1.97079e-20
-2.67869e-19
2.3406e-20
-2.75012e-19
2.71385e-20
-2.78255e-19
3.08954e-20
-2.77998e-19
3.4698e-20
-2.74522e-19
3.84365e-20
-2.6802e-19
4.2059e-20
-2.58794e-19
4.55273e-20
-2.47098e-19
4.88092e-20
-2.33178e-19
5.18784e-20
-2.17255e-19
5.4705e-20
-1.99566e-19
5.72649e-20
-1.80335e-19
5.95282e-20
-1.5978e-19
6.14949e-20
-1.381e-19
6.31472e-20
-1.155e-19
6.44934e-20
-9.21739e-20
6.55127e-20
-6.83134e-20
6.61835e-20
-4.41147e-20
6.64746e-20
-1.97822e-20
6.63944e-20
4.4957e-21
6.59639e-20
2.85345e-20
6.5212e-20
5.21723e-20
6.41476e-20
7.52503e-20
6.27645e-20
9.7615e-20
6.10643e-20
1.19115e-19
5.90644e-20
1.39606e-19
5.67905e-20
1.58951e-19
5.42634e-20
1.77015e-19
5.15031e-20
1.93676e-19
4.85313e-20
2.08796e-19
4.53776e-20
2.22247e-19
4.20722e-20
2.33898e-19
3.86458e-20
2.43621e-19
3.51328e-20
2.51277e-19
3.15609e-20
2.56716e-19
2.80091e-20
2.59761e-19
2.44897e-20
2.60269e-19
2.1043e-20
2.58063e-19
1.77682e-20
2.52901e-19
1.47241e-20
2.44596e-19
1.1881e-20
2.32755e-19
9.2771e-21
2.17186e-19
7.11589e-21
1.97959e-19
4.82694e-21
1.73929e-19
2.61052e-21
1.44831e-19
1.55687e-21
1.11371e-19
4.79759e-22
7.14093e-20
2.64867e-20
6.09673e-23
-2.96315e-20
2.92752e-22
-8.02835e-20
6.77178e-22
-1.24763e-19
1.12564e-21
-1.62635e-19
1.58247e-21
-1.94413e-19
2.09228e-21
-2.20496e-19
2.66491e-21
-2.41294e-19
3.3151e-21
-2.57201e-19
4.02382e-21
-2.68577e-19
4.80147e-21
-2.75785e-19
5.64495e-21
-2.79098e-19
6.50452e-21
-2.78857e-19
7.35519e-21
-2.75373e-19
8.19097e-21
-2.68855e-19
9.01212e-21
-2.59623e-19
9.80879e-21
-2.47907e-19
1.05635e-20
-2.33945e-19
1.12698e-20
-2.17973e-19
1.1914e-20
-2.00226e-19
1.24956e-20
-1.80925e-19
1.30084e-20
-1.60274e-19
1.34617e-20
-1.38498e-19
1.38646e-20
-1.158e-19
1.42221e-20
-9.23818e-20
1.44918e-20
-6.84466e-20
1.46497e-20
-4.42019e-20
1.46722e-20
-1.98322e-20
1.45797e-20
4.48996e-21
1.43937e-20
2.85962e-20
1.41471e-20
5.23252e-20
1.38376e-20
7.54991e-20
1.34609e-20
9.79566e-20
1.30088e-20
1.19538e-19
1.24833e-20
1.40108e-19
1.18984e-20
1.5952e-19
1.12543e-20
1.77653e-19
1.05635e-20
1.9436e-19
9.83065e-21
2.09525e-19
9.06405e-21
2.23005e-19
8.27859e-21
2.34682e-19
7.487e-21
2.4442e-19
6.70024e-21
2.52078e-19
5.91379e-21
2.5752e-19
5.13228e-21
2.60561e-19
4.37591e-21
2.61046e-19
3.72477e-21
2.58786e-19
3.20294e-21
2.53555e-19
2.74433e-21
2.45106e-19
2.36824e-21
2.33312e-19
2.12116e-21
2.17881e-19
1.75329e-21
1.97965e-19
1.50512e-21
1.73941e-19
1.19029e-21
1.45695e-19
-6.32846e-23
1.1113e-19
-3.31442e-22
7.1695e-20
2.61518e-20
-1.58503e-22
-2.94864e-20
-5.99852e-22
-7.9694e-20
-1.34473e-21
-1.23835e-19
-2.47313e-21
-1.6142e-19
-3.89247e-21
-1.92947e-19
-5.56736e-21
-2.1882e-19
-7.4245e-21
-2.39449e-19
-9.3903e-21
-2.5524e-19
-1.14262e-20
-2.66536e-19
-1.35362e-20
-2.73673e-19
-1.56518e-20
-2.76977e-19
-1.77559e-20
-2.76753e-19
-1.98342e-20
-2.73292e-19
-2.18422e-20
-2.66854e-19
-2.37827e-20
-2.57688e-19
-2.56368e-20
-2.4606e-19
-2.73872e-20
-2.32201e-19
-2.90263e-20
-2.16349e-19
-3.05365e-20
-1.98723e-19
-3.19152e-20
-1.79549e-19
-3.31353e-20
-1.59041e-19
-3.41865e-20
-1.37412e-19
-3.50417e-20
-1.14857e-19
-3.57256e-20
-9.16059e-20
-3.6235e-20
-6.78543e-20
-3.66069e-20
-4.381e-20
-3.68341e-20
-1.96369e-20
-3.6917e-20
4.49332e-21
-3.68169e-20
2.84342e-20
-3.65425e-20
5.19972e-20
-3.60856e-20
7.50156e-20
-3.54685e-20
9.73089e-20
-3.46822e-20
1.18737e-19
-3.37469e-20
1.39156e-19
-3.26553e-20
1.58431e-19
-3.14284e-20
1.76421e-19
-3.0061e-20
1.92997e-19
-2.85726e-20
2.08029e-19
-2.69588e-20
2.21399e-19
-2.52448e-20
2.32972e-19
-2.34286e-20
2.42619e-19
-2.15399e-20
2.50201e-19
-1.95637e-20
2.55561e-19
-1.75315e-20
2.58534e-19
-1.54479e-20
2.5899e-19
-1.33426e-20
2.56715e-19
-1.12251e-20
2.51518e-19
-9.08497e-21
2.43209e-19
-7.02702e-21
2.31358e-19
-5.08861e-21
2.15745e-19
-3.13363e-21
1.96641e-19
-1.97027e-21
1.72815e-19
-1.41785e-21
1.43572e-19
2.21411e-24
1.10458e-19
1.95012e-22
7.0794e-20
2.63123e-20
-5.08956e-22
-2.89009e-20
-1.53173e-21
-7.8457e-20
-3.40815e-21
-1.21817e-19
-6.0127e-21
-1.58666e-19
-9.3143e-21
-1.89587e-19
-1.31693e-20
-2.14958e-19
-1.7439e-20
-2.35182e-19
-2.20152e-20
-2.50661e-19
-2.68161e-20
-2.61731e-19
-3.17562e-20
-2.6872e-19
-3.67565e-20
-2.71966e-19
-4.1764e-20
-2.71733e-19
-4.67407e-20
-2.68313e-19
-5.1602e-20
-2.6199e-19
-5.62948e-20
-2.52994e-19
-6.07773e-20
-2.41571e-19
-6.5017e-20
-2.2796e-19
-6.89715e-20
-2.12388e-19
-7.26161e-20
-1.95081e-19
-7.59132e-20
-1.76252e-19
-7.88481e-20
-1.56107e-19
-8.13879e-20
-1.34853e-19
-8.35318e-20
-1.12703e-19
-8.52551e-20
-8.98677e-20
-8.65643e-20
-6.65473e-20
-8.74497e-20
-4.29278e-20
-8.79189e-20
-1.91785e-20
-8.79561e-20
4.53404e-21
-8.75745e-20
2.80473e-20
-8.67614e-20
5.11838e-20
-8.55441e-20
7.37839e-20
-8.39205e-20
9.56821e-20
-8.19195e-20
1.1673e-19
-7.95308e-20
1.36777e-19
-7.67926e-20
1.55693e-19
-7.36999e-20
1.73336e-19
-7.03002e-20
1.89598e-19
-6.65971e-20
2.04338e-19
-6.26335e-20
2.17441e-19
-5.84242e-20
2.28776e-19
-5.40147e-20
2.38218e-19
-4.94274e-20
2.45625e-19
-4.47205e-20
2.50855e-19
-3.99463e-20
2.53758e-19
-3.51449e-20
2.54182e-19
-3.03203e-20
2.51943e-19
-2.55116e-20
2.46831e-19
-2.08397e-20
2.3854e-19
-1.63684e-20
2.27051e-19
-1.21153e-20
2.12048e-19
-8.50613e-21
1.92519e-19
-5.20939e-21
1.69118e-19
-2.49386e-21
1.41792e-19
-1.96393e-21
1.08042e-19
-8.45314e-22
6.97716e-20
2.54644e-20
-5.43363e-22
-2.82939e-20
-2.40369e-21
-7.63709e-20
-5.38186e-21
-1.18536e-19
-9.56143e-21
-1.54335e-19
-1.47348e-20
-1.84336e-19
-2.07355e-20
-2.08929e-19
-2.74011e-20
-2.28508e-19
-3.457e-20
-2.43484e-19
-4.2094e-20
-2.54186e-19
-4.98508e-20
-2.60939e-19
-5.77325e-20
-2.64058e-19
-6.56345e-20
-2.63811e-19
-7.34575e-20
-2.60473e-19
-8.11185e-20
-2.54312e-19
-8.85228e-20
-2.45569e-19
-9.56048e-20
-2.34469e-19
-1.02295e-19
-2.21248e-19
-1.08544e-19
-2.06121e-19
-1.14296e-19
-1.89316e-19
-1.19509e-19
-1.71026e-19
-1.24137e-19
-1.51474e-19
-1.28149e-19
-1.30843e-19
-1.31528e-19
-1.09348e-19
-1.34258e-19
-8.71656e-20
-1.36328e-19
-6.45146e-20
-1.37713e-19
-4.15525e-20
-1.38411e-19
-1.84798e-20
-1.38415e-19
4.56927e-21
-1.37748e-19
2.74053e-20
-1.36424e-19
4.98907e-20
-1.34461e-19
7.18299e-20
-1.31855e-19
9.30966e-20
-1.28634e-19
1.13514e-19
-1.24807e-19
1.32969e-19
-1.20422e-19
1.51308e-19
-1.15497e-19
1.6843e-19
-1.10081e-19
1.84183e-19
-1.04195e-19
1.9847e-19
-9.79024e-20
2.11148e-19
-9.12366e-20
2.22125e-19
-8.42704e-20
2.31247e-19
-7.70468e-20
2.38411e-19
-6.96633e-20
2.43449e-19
-6.2165e-20
2.46252e-19
-5.46276e-20
2.46638e-19
-4.71038e-20
2.44433e-19
-3.97013e-20
2.39449e-19
-3.24585e-20
2.31564e-19
-2.55944e-20
2.20262e-19
-1.92318e-20
2.05328e-19
-1.32421e-20
1.8729e-19
-8.60584e-21
1.6462e-19
-5.37632e-21
1.36526e-19
-1.58789e-21
1.05271e-19
-1.49958e-22
6.74448e-20
2.52661e-20
-9.228e-22
-2.72685e-20
-3.29242e-21
-7.35467e-20
-7.45285e-21
-1.14143e-19
-1.30956e-20
-1.48464e-19
-2.01313e-20
-1.7717e-19
-2.82965e-20
-2.00719e-19
-3.73528e-20
-2.19426e-19
-4.70878e-20
-2.33718e-19
-5.73123e-20
-2.43925e-19
-6.78592e-20
-2.50358e-19
-7.85784e-20
-2.53299e-19
-8.933e-20
-2.5303e-19
-9.9971e-20
-2.49802e-19
-1.1039e-19
-2.43875e-19
-1.20463e-19
-2.35463e-19
-1.30099e-19
-2.24803e-19
-1.39201e-19
-2.12104e-19
-1.47709e-19
-1.97595e-19
-1.55529e-19
-1.81463e-19
-1.62624e-19
-1.63926e-19
-1.68909e-19
-1.4516e-19
-1.74389e-19
-1.25384e-19
-1.78978e-19
-1.04764e-19
-1.82697e-19
-8.35035e-20
-1.85471e-19
-6.17601e-20
-1.8734e-19
-3.97228e-20
-1.88241e-19
-1.75426e-20
-1.88248e-19
4.59081e-21
-1.87299e-19
2.65216e-20
-1.8548e-19
4.80808e-20
-1.82732e-19
6.91333e-20
-1.79161e-19
8.9517e-20
-1.74712e-19
1.09104e-19
-1.69497e-19
1.27743e-19
-1.63467e-19
1.45322e-19
-1.56755e-19
1.61706e-19
-1.49323e-19
1.76786e-19
-1.41314e-19
1.90442e-19
-1.32706e-19
2.02568e-19
-1.2365e-19
2.13041e-19
-1.14143e-19
2.21753e-19
-1.04351e-19
2.28571e-19
-9.42913e-20
2.33378e-19
-8.41271e-20
2.3603e-19
-7.38906e-20
2.36379e-19
-6.37378e-20
2.3428e-19
-5.36851e-20
2.29528e-19
-4.40267e-20
2.218e-19
-3.48012e-20
2.11162e-19
-2.61403e-20
1.97365e-19
-1.86414e-20
1.79046e-19
-1.18254e-20
1.57214e-19
-6.17641e-21
1.32191e-19
-3.87734e-21
1.00635e-19
-1.54654e-21
6.50876e-20
2.37105e-20
-1.03656e-21
-2.60651e-20
-4.20866e-21
-7.00719e-20
-9.42617e-21
-1.08475e-19
-1.66534e-20
-1.40969e-19
-2.55926e-20
-1.68098e-19
-3.58984e-20
-1.90324e-19
-4.73276e-20
-2.07949e-19
-5.96027e-20
-2.21393e-19
-7.25074e-20
-2.30986e-19
-8.57989e-20
-2.37007e-19
-9.93274e-20
-2.39745e-19
-1.12865e-19
-2.39453e-19
-1.26297e-19
-2.36373e-19
-1.39402e-19
-2.30727e-19
-1.52117e-19
-2.22738e-19
-1.64234e-19
-2.12628e-19
-1.75742e-19
-2.00601e-19
-1.86424e-19
-1.86856e-19
-1.96316e-19
-1.71583e-19
-2.05204e-19
-1.54978e-19
-2.13168e-19
-1.37223e-19
-2.20004e-19
-1.18506e-19
-2.25829e-19
-9.89888e-20
-2.30448e-19
-7.88621e-20
-2.33996e-19
-5.82706e-20
-2.36272e-19
-3.74024e-20
-2.37448e-19
-1.63971e-20
-2.37342e-19
4.55431e-21
-2.36169e-19
2.53282e-20
-2.33759e-19
4.57388e-20
-2.30336e-19
6.5676e-20
-2.25727e-19
8.49633e-20
-2.20158e-19
1.03505e-19
-2.13472e-19
1.21126e-19
-2.05918e-19
1.37742e-19
-1.97355e-19
1.53198e-19
-1.88039e-19
1.67434e-19
-1.77852e-19
1.80296e-19
-1.67056e-19
1.9172e-19
-1.55562e-19
2.01559e-19
-1.43648e-19
2.09752e-19
-1.31252e-19
2.16144e-19
-1.18641e-19
2.20665e-19
-1.05794e-19
2.23145e-19
-9.29536e-20
2.23486e-19
-8.0139e-20
2.21466e-19
-6.76381e-20
2.16957e-19
-5.54343e-20
2.09876e-19
-4.38778e-20
1.99716e-19
-3.32804e-20
1.86063e-19
-2.33047e-20
1.69974e-19
-1.52906e-20
1.49627e-19
-9.41013e-21
1.23778e-19
-3.17718e-21
9.56054e-20
-5.28551e-22
6.13968e-20
2.31244e-20
-1.4051e-21
-2.4548e-20
-5.12201e-21
-6.58294e-20
-1.15888e-20
-1.01676e-19
-2.03212e-20
-1.3204e-19
-3.10998e-20
-1.57211e-19
-4.35787e-20
-1.77836e-19
-5.73616e-20
-1.94183e-19
-7.21699e-20
-2.06619e-19
-8.7696e-20
-2.15474e-19
-1.03724e-19
-2.21028e-19
-1.19976e-19
-2.23531e-19
-1.36286e-19
-2.23213e-19
-1.52405e-19
-2.20302e-19
-1.68202e-19
-2.15014e-19
-1.83446e-19
-2.07551e-19
-1.98055e-19
-1.98112e-19
-2.11831e-19
-1.86883e-19
-2.2473e-19
-1.74059e-19
-2.36556e-19
-1.59821e-19
-2.47296e-19
-1.44335e-19
-2.56798e-19
-1.27788e-19
-2.65064e-19
-1.10329e-19
-2.71984e-19
-9.2148e-20
-2.7756e-19
-7.33729e-20
-2.81719e-19
-5.41835e-20
-2.84475e-19
-3.47112e-20
-2.85788e-19
-1.51272e-20
-2.85692e-19
4.43792e-21
-2.84188e-19
2.38066e-20
-2.81312e-19
4.28689e-20
-2.77095e-19
6.14587e-20
-2.71571e-19
7.94735e-20
-2.64787e-19
9.67418e-20
-2.56774e-19
1.13163e-19
-2.47609e-19
1.28604e-19
-2.37336e-19
1.42988e-19
-2.26068e-19
1.56194e-19
-2.13851e-19
1.68133e-19
-2.00813e-19
1.78711e-19
-1.8703e-19
1.87827e-19
-1.72663e-19
1.95396e-19
-1.57795e-19
2.01328e-19
-1.42612e-19
2.05511e-19
-1.27199e-19
2.07816e-19
-1.11767e-19
2.08107e-19
-9.64234e-20
2.06264e-19
-8.1352e-20
2.02143e-19
-6.67958e-20
1.95353e-19
-5.31022e-20
1.85992e-19
-4.00955e-20
1.74167e-19
-2.88439e-20
1.58062e-19
-1.87166e-20
1.3853e-19
-9.93567e-21
1.17084e-19
-5.75307e-21
8.90466e-20
-2.1593e-21
5.78843e-20
2.09666e-20
-1.6042e-21
-2.28189e-20
-6.10849e-21
-6.09264e-20
-1.37663e-20
-9.38895e-20
-2.40956e-20
-1.21658e-19
-3.67839e-20
-1.44657e-19
-5.14119e-20
-1.63446e-19
-6.75168e-20
-1.78291e-19
-8.48267e-20
-1.89564e-19
-1.02941e-19
-1.97579e-19
-1.21651e-19
-2.02593e-19
-1.40575e-19
-2.04817e-19
-1.59608e-19
-2.04502e-19
-1.78329e-19
-2.01815e-19
-1.96758e-19
-1.96966e-19
-2.14445e-19
-1.90103e-19
-2.31533e-19
-1.81467e-19
-2.47486e-19
-1.71175e-19
-2.62579e-19
-1.59446e-19
-2.76225e-19
-1.46378e-19
-2.88842e-19
-1.32219e-19
-2.99749e-19
-1.17038e-19
-3.09504e-19
-1.01089e-19
-3.17359e-19
-8.44023e-20
-3.23995e-19
-6.72375e-20
-3.28601e-19
-4.96129e-20
-3.31963e-19
-3.17874e-20
-3.33227e-19
-1.37694e-20
-3.3329e-19
4.14932e-21
-3.31244e-19
2.19787e-20
-3.2808e-19
3.94368e-20
-3.22865e-19
5.65475e-20
-3.16644e-19
7.30317e-20
-3.0846e-19
8.89118e-20
-2.9938e-19
1.03903e-19
-2.8843e-19
1.18059e-19
-2.76716e-19
1.31143e-19
-2.63315e-19
1.43227e-19
-2.49329e-19
1.54111e-19
-2.33899e-19
1.63787e-19
-2.18085e-19
1.72064e-19
-2.01102e-19
1.78987e-19
-1.83997e-19
1.84382e-19
-1.66096e-19
1.88227e-19
-1.48365e-19
1.90337e-19
-1.30235e-19
1.90649e-19
-1.12555e-19
1.88951e-19
-9.49621e-20
1.85103e-19
-7.8218e-20
1.79106e-19
-6.19478e-20
1.70657e-19
-4.72934e-20
1.58993e-19
-3.3658e-20
1.45267e-19
-2.20609e-20
1.28607e-19
-1.35537e-20
1.06278e-19
-4.91526e-21
8.22779e-20
-7.2205e-22
5.30961e-20
2.0222e-20
-1.69438e-21
-2.09426e-20
-7.21049e-21
-5.53808e-20
-1.59985e-20
-8.50645e-20
-2.80123e-20
-1.09867e-19
-4.25987e-20
-1.30386e-19
-5.93435e-20
-1.46944e-19
-7.7844e-20
-1.60105e-19
-9.75583e-20
-1.70055e-19
-1.18301e-19
-1.77129e-19
-1.39541e-19
-1.8151e-19
-1.61206e-19
-1.83491e-19
-1.82723e-19
-1.83133e-19
-2.04185e-19
-1.8075e-19
-2.24965e-19
-1.76347e-19
-2.45301e-19
-1.70287e-19
-2.64468e-19
-1.62484e-19
-2.82886e-19
-1.53357e-19
-2.99726e-19