/*--------------------------------*- C++ -*----------------------------------*\
| =========                 |                                                 |
| \\      /  F ield         | OpenFOAM: The Open Source CFD Toolbox           |
|  \\    /   O peration     | Version:  5.0                                   |
|   \\  /    A nd           | Web:      www.OpenFOAM.org                      |
|    \\/     M anipulation  |                                                 |
\*---------------------------------------------------------------------------*/
FoamFile
{
    version     2.0;
    format      ascii;
    class       volScalarField;
    location    "418";
    object      p;
}
// * * * * * * * * * * * * * * * * * * * * * * * * * * * * * * * * * * * * * //

dimensions      [0 2 -2 0 0 0 0];

internalField   nonuniform List<scalar> 
1568
(
1.03945e-17
4.92054e-17
7.66962e-17
9.2839e-17
1.06968e-16
1.19569e-16
1.29871e-16
1.39242e-16
1.47915e-16
1.55938e-16
1.63546e-16
1.70948e-16
1.78245e-16
1.85469e-16
1.92722e-16
2.00069e-16
2.07524e-16
2.15122e-16
2.22873e-16
2.30792e-16
2.38864e-16
2.47109e-16
2.55175e-16
2.61197e-16
2.65813e-16
2.71857e-16
2.81641e-16
2.95783e-16
3.11817e-16
3.26009e-16
3.35847e-16
3.41949e-16
3.46557e-16
3.52539e-16
3.60583e-16
3.68834e-16
3.76881e-16
3.8481e-16
3.92547e-16
4.00137e-16
4.07581e-16
4.14925e-16
4.22156e-16
4.29385e-16
4.3664e-16
4.44023e-16
4.51638e-16
4.59652e-16
4.68191e-16
4.77531e-16
4.88035e-16
5.00101e-16
5.13998e-16
5.30511e-16
5.566e-16
5.86453e-16
3.44372e-17
5.23321e-17
9.10851e-17
1.00616e-16
1.09795e-16
1.27698e-16
1.36954e-16
1.45602e-16
1.55125e-16
1.63362e-16
1.70703e-16
1.77961e-16
1.85297e-16
1.92329e-16
1.99394e-16
2.06504e-16
2.13639e-16
2.20883e-16
2.28251e-16
2.35767e-16
2.43407e-16
2.51242e-16
2.59405e-16
2.68645e-16
2.77767e-16
2.86214e-16
2.94805e-16
3.01641e-16
3.06098e-16
3.13095e-16
3.21639e-16
3.29974e-16
3.38841e-16
3.48209e-16
3.56376e-16
3.64353e-16
3.71809e-16
3.79476e-16
3.86742e-16
3.93982e-16
4.01158e-16
4.0841e-16
4.15348e-16
4.22429e-16
4.29531e-16
4.36914e-16
4.44559e-16
4.52661e-16
4.61161e-16
4.70889e-16
4.8183e-16
4.93821e-16
5.07584e-16
5.21818e-16
5.52364e-16
5.71768e-16
5.46774e-17
7.57411e-17
8.69321e-17
1.11424e-16
1.2646e-16
1.36298e-16
1.4589e-16
1.5726e-16
1.65527e-16
1.72283e-16
1.80995e-16
1.88543e-16
1.94808e-16
2.0169e-16
2.08591e-16
2.14983e-16
2.21687e-16
2.28432e-16
2.35267e-16
2.42008e-16
2.48967e-16
2.55967e-16
2.63157e-16
2.7025e-16
2.76873e-16
2.83087e-16
2.90807e-16
2.9948e-16
3.0829e-16
3.16721e-16
3.24427e-16
3.3094e-16
3.37955e-16
3.44994e-16
3.5196e-16
3.58793e-16
3.66008e-16
3.7254e-16
3.79414e-16
3.86208e-16
3.92641e-16
3.98856e-16
4.05833e-16
4.12507e-16
4.1951e-16
4.26682e-16
4.34187e-16
4.42173e-16
4.5105e-16
4.60597e-16
4.70618e-16
4.8172e-16
4.9846e-16
5.10558e-16
5.35896e-16
5.53388e-16
7.22684e-17
8.8234e-17
1.14859e-16
1.22678e-16
1.36437e-16
1.47474e-16
1.56937e-16
1.6694e-16
1.75513e-16
1.83183e-16
1.90235e-16
1.96827e-16
2.03646e-16
2.1037e-16
2.16406e-16
2.22802e-16
2.29112e-16
2.35249e-16
2.41373e-16
2.47883e-16
2.5422e-16
2.60608e-16
2.66916e-16
2.73388e-16
2.79543e-16
2.86037e-16
2.92867e-16
3.00216e-16
3.07579e-16
3.15021e-16
3.2193e-16
3.28052e-16
3.33986e-16
3.40322e-16
3.46921e-16
3.5328e-16
3.59662e-16
3.66095e-16
3.72234e-16
3.78496e-16
3.84934e-16
3.91467e-16
3.97682e-16
4.04059e-16
4.10689e-16
4.17553e-16
4.2465e-16
4.32667e-16
4.40943e-16
4.49423e-16
4.60943e-16
4.73007e-16
4.83378e-16
4.94753e-16
5.21382e-16
5.3541e-16
9.13182e-17
1.01719e-16
1.25894e-16
1.34921e-16
1.47373e-16
1.58233e-16
1.67941e-16
1.76542e-16
1.83964e-16
1.91652e-16
1.98582e-16
2.05106e-16
2.11409e-16
2.17301e-16
2.23157e-16
2.29089e-16
2.34831e-16
2.40663e-16
2.46496e-16
2.52306e-16
2.58133e-16
2.64068e-16
2.7006e-16
2.76149e-16
2.82131e-16
2.88296e-16
2.94513e-16
3.00727e-16
3.06906e-16
3.13173e-16
3.1945e-16
3.25721e-16
3.31802e-16
3.37852e-16
3.439e-16
3.49808e-16
3.55512e-16
3.61395e-16
3.67187e-16
3.7288e-16
3.78539e-16
3.8429e-16
3.90109e-16
3.96219e-16
4.02407e-16
4.08969e-16
4.15975e-16
4.23086e-16
4.30823e-16
4.40316e-16
4.49324e-16
4.57764e-16
4.72502e-16
4.85109e-16
5.02323e-16
5.15986e-16
1.11977e-16
1.24112e-16
1.40893e-16
1.52071e-16
1.6169e-16
1.7092e-16
1.80526e-16
1.88431e-16
1.95161e-16
2.02229e-16
2.08773e-16
2.14754e-16
2.20457e-16
2.26103e-16
2.31672e-16
2.36903e-16
2.421e-16
2.47368e-16
2.52648e-16
2.57793e-16
2.63062e-16
2.68414e-16
2.73738e-16
2.79058e-16
2.84464e-16
2.89823e-16
2.95382e-16
3.01071e-16
3.06744e-16
3.12358e-16
3.17844e-16
3.23247e-16
3.28707e-16
3.34042e-16
3.39245e-16
3.44548e-16
3.4985e-16
3.55059e-16
3.6032e-16
3.65604e-16
3.70848e-16
3.76163e-16
3.81672e-16
3.87185e-16
3.92978e-16
3.99e-16
4.05168e-16
4.12274e-16
4.19856e-16
4.26663e-16
4.36051e-16
4.4749e-16
4.56013e-16
4.63601e-16
4.85016e-16
4.95913e-16
1.32883e-16
1.43213e-16
1.58166e-16
1.6712e-16
1.76501e-16
1.85511e-16
1.93122e-16
2.00063e-16
2.07067e-16
2.13374e-16
2.19021e-16
2.24415e-16
2.29688e-16
2.34774e-16
2.39624e-16
2.44434e-16
2.49244e-16
2.53915e-16
2.58554e-16
2.63285e-16
2.68e-16
2.72637e-16
2.77326e-16
2.82068e-16
2.86846e-16
2.91645e-16
2.9652e-16
3.01418e-16
3.0636e-16
3.11324e-16
3.16155e-16
3.20871e-16
3.25611e-16
3.30342e-16
3.35031e-16
3.39724e-16
3.44468e-16
3.49103e-16
3.53733e-16
3.58435e-16
3.63211e-16
3.68027e-16
3.72919e-16
3.77924e-16
3.83169e-16
3.88692e-16
3.94467e-16
4.00578e-16
4.07138e-16
4.14805e-16
4.22809e-16
4.2947e-16
4.40636e-16
4.51281e-16
4.64614e-16
4.74668e-16
1.54467e-16
1.62623e-16
1.76085e-16
1.83691e-16
1.92087e-16
1.99661e-16
2.06169e-16
2.12547e-16
2.18772e-16
2.24032e-16
2.29155e-16
2.34169e-16
2.38866e-16
2.43286e-16
2.47592e-16
2.51867e-16
2.56054e-16
2.60166e-16
2.64271e-16
2.6838e-16
2.7246e-16
2.76574e-16
2.80716e-16
2.84877e-16
2.89025e-16
2.93244e-16
2.97474e-16
3.01726e-16
3.06e-16
3.10241e-16
3.1453e-16
3.18795e-16
3.22917e-16
3.27059e-16
3.31257e-16
3.3535e-16
3.39388e-16
3.43495e-16
3.47591e-16
3.51698e-16
3.55834e-16
3.60025e-16
3.64335e-16
3.68818e-16
3.7346e-16
3.78318e-16
3.83372e-16
3.89006e-16
3.95013e-16
4.00808e-16
4.07944e-16
4.1639e-16
4.23767e-16
4.29328e-16
4.44911e-16
4.53086e-16
1.76673e-16
1.83693e-16
1.95361e-16
2.01595e-16
2.08301e-16
2.14421e-16
2.20602e-16
2.26203e-16
2.31119e-16
2.35836e-16
2.40362e-16
2.44493e-16
2.48517e-16
2.52409e-16
2.56152e-16
2.59784e-16
2.63324e-16
2.66875e-16
2.70399e-16
2.73843e-16
2.77314e-16
2.80869e-16
2.84347e-16
2.87843e-16
2.91384e-16
2.94935e-16
2.98496e-16
3.02097e-16
3.05697e-16
3.09257e-16
3.12828e-16
3.16377e-16
3.19915e-16
3.23414e-16
3.26892e-16
3.30369e-16
3.33841e-16
3.37322e-16
3.40832e-16
3.44357e-16
3.47913e-16
3.51562e-16
3.55319e-16
3.59143e-16
3.63102e-16
3.6735e-16
3.71822e-16
3.76479e-16
3.81427e-16
3.87093e-16
3.93274e-16
3.98404e-16
4.0631e-16
4.13683e-16
4.23609e-16
4.30756e-16
1.99314e-16
2.05057e-16
2.14156e-16
2.19249e-16
2.25021e-16
2.30188e-16
2.35372e-16
2.39785e-16
2.43732e-16
2.47834e-16
2.51647e-16
2.5506e-16
2.58353e-16
2.61577e-16
2.64647e-16
2.67691e-16
2.70646e-16
2.73547e-16
2.76418e-16
2.79349e-16
2.82193e-16
2.85019e-16
2.87894e-16
2.908e-16
2.93681e-16
2.96577e-16
2.99497e-16
3.02426e-16
3.05342e-16
3.08295e-16
3.11192e-16
3.14069e-16
3.16958e-16
3.19843e-16
3.22693e-16
3.25536e-16
3.28422e-16
3.3129e-16
3.34153e-16
3.37049e-16
3.39999e-16
3.43013e-16
3.46083e-16
3.49266e-16
3.52588e-16
3.56074e-16
3.59665e-16
3.63716e-16
3.68045e-16
3.72123e-16
3.77196e-16
3.82692e-16
3.88437e-16
3.92391e-16
4.02587e-16
4.08177e-16
2.2224e-16
2.26706e-16
2.3358e-16
2.37809e-16
2.42323e-16
2.46246e-16
2.50119e-16
2.53555e-16
2.56936e-16
2.60092e-16
2.6288e-16
2.65669e-16
2.6835e-16
2.70842e-16
2.7325e-16
2.75634e-16
2.77973e-16
2.80244e-16
2.82489e-16
2.8472e-16
2.86987e-16
2.89197e-16
2.91446e-16
2.93663e-16
2.95899e-16
2.98154e-16
3.00471e-16
3.02763e-16
3.05055e-16
3.07333e-16
3.09573e-16
3.11834e-16
3.14091e-16
3.16326e-16
3.18565e-16
3.20794e-16
3.23015e-16
3.2524e-16
3.27483e-16
3.29758e-16
3.32066e-16
3.344e-16
3.36795e-16
3.39321e-16
3.41955e-16
3.44652e-16
3.47562e-16
3.50679e-16
3.53837e-16
3.57346e-16
3.61693e-16
3.64993e-16
3.6943e-16
3.74108e-16
3.80768e-16
3.8515e-16
2.45467e-16
2.48672e-16
2.53656e-16
2.56579e-16
2.598e-16
2.62541e-16
2.65392e-16
2.67905e-16
2.7029e-16
2.72425e-16
2.74567e-16
2.76445e-16
2.78303e-16
2.80295e-16
2.82083e-16
2.83732e-16
2.8538e-16
2.87027e-16
2.88675e-16
2.90234e-16
2.91849e-16
2.93452e-16
2.95064e-16
2.96676e-16
2.98335e-16
2.99928e-16
3.01486e-16
3.03019e-16
3.04616e-16
3.06254e-16
3.07915e-16
3.09535e-16
3.11117e-16
3.12695e-16
3.1428e-16
3.15906e-16
3.17473e-16
3.19056e-16
3.20675e-16
3.22302e-16
3.23944e-16
3.25639e-16
3.27382e-16
3.29331e-16
3.31182e-16
3.33071e-16
3.35178e-16
3.37257e-16
3.39805e-16
3.42178e-16
3.44687e-16
3.47612e-16
3.51564e-16
3.53643e-16
3.58709e-16
3.61938e-16
2.68829e-16
2.70785e-16
2.7382e-16
2.75497e-16
2.77459e-16
2.79086e-16
2.80906e-16
2.82433e-16
2.83734e-16
2.84742e-16
2.87161e-16
2.88436e-16
2.8839e-16
2.8991e-16
2.90917e-16
2.91891e-16
2.92906e-16
2.93886e-16
2.94849e-16
2.95811e-16
2.96737e-16
2.97708e-16
2.98629e-16
2.99541e-16
3.00456e-16
3.01423e-16
3.02423e-16
3.0348e-16
3.04468e-16
3.05361e-16
3.0627e-16
3.07215e-16
3.08163e-16
3.09131e-16
3.10066e-16
3.10968e-16
3.11929e-16
3.12891e-16
3.13836e-16
3.14796e-16
3.15782e-16
3.16763e-16
3.1777e-16
3.1922e-16
3.19202e-16
3.20491e-16
3.22789e-16
3.2392e-16
3.25106e-16
3.26334e-16
3.28891e-16
3.3023e-16
3.31383e-16
3.33368e-16
3.36846e-16
3.3855e-16
2.9234e-16
2.93009e-16
2.93992e-16
2.94616e-16
2.95338e-16
2.95788e-16
2.96471e-16
2.96998e-16
2.97601e-16
2.97909e-16
2.98631e-16
2.98816e-16
2.98874e-16
2.99858e-16
2.9985e-16
3.0008e-16
3.00435e-16
3.00725e-16
3.01e-16
3.0133e-16
3.01644e-16
3.01938e-16
3.02238e-16
3.02579e-16
3.0287e-16
3.03181e-16
3.03443e-16
3.03701e-16
3.03995e-16
3.04322e-16
3.0463e-16
3.04942e-16
3.05225e-16
3.05511e-16
3.05836e-16
3.06098e-16
3.06419e-16
3.06705e-16
3.06982e-16
3.07301e-16
3.07611e-16
3.07783e-16
3.07827e-16
3.08764e-16
3.08792e-16
3.09015e-16
3.09634e-16
3.09875e-16
3.10657e-16
3.11318e-16
3.11512e-16
3.11397e-16
3.138e-16
3.13854e-16
3.142e-16
3.15016e-16
3.15856e-16
3.15312e-16
3.14349e-16
3.13752e-16
3.13262e-16
3.12491e-16
3.12077e-16
3.11466e-16
3.10819e-16
3.10594e-16
3.09805e-16
3.09596e-16
3.09561e-16
3.08549e-16
3.08498e-16
3.08276e-16
3.07904e-16
3.07548e-16
3.07226e-16
3.06895e-16
3.06539e-16
3.06166e-16
3.0584e-16
3.05517e-16
3.05172e-16
3.04802e-16
3.04447e-16
3.04036e-16
3.03655e-16
3.03337e-16
3.03002e-16
3.02631e-16
3.0228e-16
3.019e-16
3.0155e-16
3.01226e-16
3.00854e-16
3.00482e-16
3.0015e-16
2.99786e-16
2.99422e-16
2.99167e-16
2.99113e-16
2.98109e-16
2.98016e-16
2.9777e-16
2.9705e-16
2.96872e-16
2.96009e-16
2.95053e-16
2.95463e-16
2.94766e-16
2.93221e-16
2.92009e-16
2.92457e-16
2.91533e-16
3.39389e-16
3.37672e-16
3.34596e-16
3.32801e-16
3.31161e-16
3.29175e-16
3.27709e-16
3.26103e-16
3.24665e-16
3.23754e-16
3.21336e-16
3.20032e-16
3.2007e-16
3.18525e-16
3.17507e-16
3.16493e-16
3.1544e-16
3.14456e-16
3.1346e-16
3.12432e-16
3.1143e-16
3.10488e-16
3.09446e-16
3.08388e-16
3.07357e-16
3.06354e-16
3.05398e-16
3.04478e-16
3.03469e-16
3.0241e-16
3.01324e-16
3.00313e-16
2.99319e-16
2.98342e-16
2.97287e-16
2.96305e-16
2.95272e-16
2.94299e-16
2.93283e-16
2.92251e-16
2.91192e-16
2.90195e-16
2.89103e-16
2.87565e-16
2.87581e-16
2.86328e-16
2.83822e-16
2.82727e-16
2.8157e-16
2.80262e-16
2.77997e-16
2.75348e-16
2.75881e-16
2.73534e-16
2.69621e-16
2.67957e-16
3.62772e-16
3.59698e-16
3.54728e-16
3.51848e-16
3.48892e-16
3.45671e-16
3.43178e-16
3.40578e-16
3.38152e-16
3.36117e-16
3.33879e-16
3.31968e-16
3.30127e-16
3.28111e-16
3.26347e-16
3.24601e-16
3.22934e-16
3.21245e-16
3.19607e-16
3.17947e-16
3.16334e-16
3.14665e-16
3.13054e-16
3.11436e-16
3.09837e-16
3.08137e-16
3.0642e-16
3.04645e-16
3.02984e-16
3.01313e-16
2.99707e-16
2.98041e-16
2.96376e-16
2.94695e-16
2.93076e-16
2.91412e-16
2.89787e-16
2.88111e-16
2.86454e-16
2.84769e-16
2.83077e-16
2.8133e-16
2.79558e-16
2.77536e-16
2.75657e-16
2.73696e-16
2.71483e-16
2.69599e-16
2.66861e-16
2.63859e-16
2.6237e-16
2.59382e-16
2.54711e-16
2.51422e-16
2.48136e-16
2.44622e-16
3.86059e-16
3.81838e-16
3.7469e-16
3.70556e-16
3.66461e-16
3.62038e-16
3.58433e-16
3.54854e-16
3.51476e-16
3.48444e-16
3.45491e-16
3.42765e-16
3.40104e-16
3.37542e-16
3.35094e-16
3.32725e-16
3.30369e-16
3.28043e-16
3.25746e-16
3.2348e-16
3.21206e-16
3.18892e-16
3.16614e-16
3.14289e-16
3.11978e-16
3.09657e-16
3.07402e-16
3.05067e-16
3.02767e-16
3.00394e-16
2.98092e-16
2.95729e-16
2.93453e-16
2.9112e-16
2.8888e-16
2.86533e-16
2.84284e-16
2.81946e-16
2.79686e-16
2.77321e-16
2.74985e-16
2.72525e-16
2.70136e-16
2.67501e-16
2.64861e-16
2.62184e-16
2.59142e-16
2.55822e-16
2.5298e-16
2.4962e-16
2.44878e-16
2.39965e-16
2.38491e-16
2.33752e-16
2.25353e-16
2.21295e-16
4.0904e-16
4.0338e-16
3.94414e-16
3.88997e-16
3.8371e-16
3.78148e-16
3.73456e-16
3.68892e-16
3.6462e-16
3.60786e-16
3.56979e-16
3.53493e-16
3.50133e-16
3.46971e-16
3.4378e-16
3.40824e-16
3.37731e-16
3.34901e-16
3.31851e-16
3.29064e-16
3.25995e-16
3.2325e-16
3.20175e-16
3.17398e-16
3.14272e-16
3.11484e-16
3.08297e-16
3.05498e-16
3.02292e-16
2.995e-16
2.96287e-16
2.93522e-16
2.90374e-16
2.87638e-16
2.84483e-16
2.81778e-16
2.78661e-16
2.75924e-16
2.72788e-16
2.70013e-16
2.66826e-16
2.63947e-16
2.60651e-16
2.57547e-16
2.54084e-16
2.50576e-16
2.4675e-16
2.43325e-16
2.38416e-16
2.33216e-16
2.30354e-16
2.24909e-16
2.17048e-16
2.11381e-16
2.04546e-16
1.98402e-16
4.31763e-16
4.24862e-16
4.13604e-16
4.06937e-16
4.00446e-16
3.93621e-16
3.88028e-16
3.82496e-16
3.77365e-16
3.72642e-16
3.68203e-16
3.63919e-16
3.59978e-16
3.56025e-16
3.52314e-16
3.48544e-16
3.45033e-16
3.4138e-16
3.37941e-16
3.34287e-16
3.30872e-16
3.2724e-16
3.23774e-16
3.20121e-16
3.16641e-16
3.12941e-16
3.09393e-16
3.05662e-16
3.02086e-16
2.98352e-16
2.94801e-16
2.91126e-16
2.87592e-16
2.83941e-16
2.80441e-16
2.76859e-16
2.73355e-16
2.6979e-16
2.66285e-16
2.62684e-16
2.59088e-16
2.55416e-16
2.51663e-16
2.47726e-16
2.43662e-16
2.39588e-16
2.3505e-16
2.29853e-16
2.25115e-16
2.20835e-16
2.13102e-16
2.05037e-16
2.02565e-16
1.95876e-16
1.8212e-16
1.75593e-16
4.54032e-16
4.45707e-16
4.3228e-16
4.24557e-16
4.1699e-16
4.08749e-16
4.02156e-16
3.95771e-16
3.8978e-16
3.84275e-16
3.79201e-16
3.74164e-16
3.69618e-16
3.64936e-16
3.60823e-16
3.56329e-16
3.524e-16
3.47877e-16
3.44119e-16
3.39591e-16
3.35897e-16
3.31232e-16
3.27585e-16
3.22843e-16
3.192e-16
3.14335e-16
3.10698e-16
3.05691e-16
3.02072e-16
2.97043e-16
2.93505e-16
2.88518e-16
2.85063e-16
2.8014e-16
2.76745e-16
2.71746e-16
2.68358e-16
2.63475e-16
2.60032e-16
2.55114e-16
2.51586e-16
2.46585e-16
2.42815e-16
2.37755e-16
2.33713e-16
2.28198e-16
2.23264e-16
2.17879e-16
2.12308e-16
2.03804e-16
1.99083e-16
1.9322e-16
1.81486e-16
1.72174e-16
1.6268e-16
1.5352e-16
4.75783e-16
4.65836e-16
4.5073e-16
4.4089e-16
4.32501e-16
4.23542e-16
4.15636e-16
4.08575e-16
4.01776e-16
3.95744e-16
3.89695e-16
3.84409e-16
3.78982e-16
3.74167e-16
3.68877e-16
3.64363e-16
3.59235e-16
3.54945e-16
3.49707e-16
3.45511e-16
3.40187e-16
3.36055e-16
3.30651e-16
3.2646e-16
3.20962e-16
3.16748e-16
3.11094e-16
3.06795e-16
3.01025e-16
2.96755e-16
2.91013e-16
2.8684e-16
2.81219e-16
2.77095e-16
2.7155e-16
2.67586e-16
2.62181e-16
2.58022e-16
2.52662e-16
2.48567e-16
2.43226e-16
2.38943e-16
2.335e-16
2.28843e-16
2.23033e-16
2.17891e-16
2.12011e-16
2.05821e-16
1.98468e-16
1.92897e-16
1.84726e-16
1.71979e-16
1.67856e-16
1.59627e-16
1.41179e-16
1.31622e-16
4.96896e-16
4.85379e-16
4.67706e-16
4.56897e-16
4.47019e-16
4.36984e-16
4.28303e-16
4.2041e-16
4.12909e-16
4.06209e-16
3.9968e-16
3.93783e-16
3.87722e-16
3.82383e-16
3.7661e-16
3.71648e-16
3.65841e-16
3.61093e-16
3.55235e-16
3.50604e-16
3.44566e-16
3.40029e-16
3.3375e-16
3.29321e-16
3.22879e-16
3.18485e-16
3.11776e-16
3.07309e-16
3.00381e-16
2.95985e-16
2.89031e-16
2.84892e-16
2.78104e-16
2.74087e-16
2.67304e-16
2.63414e-16
2.56564e-16
2.52785e-16
2.46224e-16
2.42277e-16
2.35561e-16
2.31583e-16
2.24888e-16
2.20403e-16
2.13573e-16
2.08658e-16
2.01033e-16
1.95076e-16
1.87328e-16
1.79286e-16
1.6958e-16
1.62808e-16
1.50825e-16
1.37156e-16
1.22577e-16
1.10723e-16
5.17281e-16
5.04554e-16
4.838e-16
4.7287e-16
4.6108e-16
4.49911e-16
4.4095e-16
4.31942e-16
4.24101e-16
4.16619e-16
4.10031e-16
4.03066e-16
3.97303e-16
3.90718e-16
3.85447e-16
3.78859e-16
3.7391e-16
3.6711e-16
3.62416e-16
3.55294e-16
3.50762e-16
3.43301e-16
3.38879e-16
3.31143e-16
3.26783e-16
3.18793e-16
3.14357e-16
3.06036e-16
3.01759e-16
2.93324e-16
2.8929e-16
2.81104e-16
2.77263e-16
2.69053e-16
2.65173e-16
2.56851e-16
2.53127e-16
2.45256e-16
2.41102e-16
2.33295e-16
2.29278e-16
2.21528e-16
2.17215e-16
2.09632e-16
2.04788e-16
1.96894e-16
1.91038e-16
1.82854e-16
1.75764e-16
1.66231e-16
1.57973e-16
1.45487e-16
1.3371e-16
1.25932e-16
1.02892e-16
9.02618e-17
5.36518e-16
5.21666e-16
4.97189e-16
4.85763e-16
4.73255e-16
4.61394e-16
4.51657e-16
4.42378e-16
4.33979e-16
4.26285e-16
4.18989e-16
4.12028e-16
4.05481e-16
3.98869e-16
3.92557e-16
3.86102e-16
3.80012e-16
3.73462e-16
3.67384e-16
3.60699e-16
3.54575e-16
3.47753e-16
3.41634e-16
3.34592e-16
3.2873e-16
3.2172e-16
3.15388e-16
3.0738e-16
3.00516e-16
2.92424e-16
2.8599e-16
2.7845e-16
2.72541e-16
2.65227e-16
2.5959e-16
2.52506e-16
2.46967e-16
2.3951e-16
2.34251e-16
2.27448e-16
2.22166e-16
2.15014e-16
2.09471e-16
2.02191e-16
1.96227e-16
1.88599e-16
1.82175e-16
1.73776e-16
1.65728e-16
1.55757e-16
1.47028e-16
1.34817e-16
1.22454e-16
1.09529e-16
8.60448e-17
7.11643e-17
5.54732e-16
5.37995e-16
5.1168e-16
4.97486e-16
4.84462e-16
4.71695e-16
4.60938e-16
4.51744e-16
4.42707e-16
4.34903e-16
4.27001e-16
4.20229e-16
4.12737e-16
4.06609e-16
3.99183e-16
3.93402e-16
3.85717e-16
3.80152e-16
3.72042e-16
3.6666e-16
3.58035e-16
3.52752e-16
3.43753e-16
3.3869e-16
3.30067e-16
3.25916e-16
3.1568e-16
3.09404e-16
2.98146e-16
2.92104e-16
2.8165e-16
2.78447e-16
2.69434e-16
2.65128e-16
2.54962e-16
2.50723e-16
2.40737e-16
2.36691e-16
2.27337e-16
2.22614e-16
2.13162e-16
2.09045e-16
2.0006e-16
1.95301e-16
1.86451e-16
1.81067e-16
1.71677e-16
1.64975e-16
1.55296e-16
1.46907e-16
1.34954e-16
1.22666e-16
1.10488e-16
9.56827e-17
6.98599e-17
5.30081e-17
5.73011e-16
5.52944e-16
5.23877e-16
5.08385e-16
4.95085e-16
4.82767e-16
4.7212e-16
4.62532e-16
4.53851e-16
4.45755e-16
4.38135e-16
4.30712e-16
4.23565e-16
4.16395e-16
4.09384e-16
4.02177e-16
3.95053e-16
3.87682e-16
3.80351e-16
3.72673e-16
3.65076e-16
3.57096e-16
3.48921e-16
3.39448e-16
3.30282e-16
3.21733e-16
3.13187e-16
3.06218e-16
3.01624e-16
2.94625e-16
2.86054e-16
2.77283e-16
2.67986e-16
2.58529e-16
2.50451e-16
2.42458e-16
2.34917e-16
2.27228e-16
2.19817e-16
2.12643e-16
2.05668e-16
1.98418e-16
1.91324e-16
1.84209e-16
1.77016e-16
1.69624e-16
1.61981e-16
1.53924e-16
1.451e-16
1.3559e-16
1.2508e-16
1.12736e-16
9.9142e-17
8.3794e-17
5.48926e-17
3.47632e-17
5.87687e-16
5.57668e-16
5.31672e-16
5.15099e-16
5.01171e-16
4.89079e-16
4.78596e-16
4.69215e-16
4.60643e-16
4.52614e-16
4.4498e-16
4.37556e-16
4.30286e-16
4.23011e-16
4.15746e-16
4.08347e-16
4.00884e-16
3.9321e-16
3.85448e-16
3.77441e-16
3.6936e-16
3.61008e-16
3.52955e-16
3.4687e-16
3.42244e-16
3.36041e-16
3.26197e-16
3.11888e-16
2.95839e-16
2.81543e-16
2.71742e-16
2.65548e-16
2.60936e-16
2.54814e-16
2.4678e-16
2.38385e-16
2.30328e-16
2.22277e-16
2.14524e-16
2.06812e-16
1.99368e-16
1.91909e-16
1.8467e-16
1.77356e-16
1.70102e-16
1.62634e-16
1.55024e-16
1.46965e-16
1.38393e-16
1.28982e-16
1.18531e-16
1.0644e-16
9.24999e-17
7.59532e-17
4.99897e-17
2.00238e-17
)
;

boundaryField
{
    top
    {
        type            zeroGradient;
    }
    bottom
    {
        type            zeroGradient;
    }
    rotatingWall
    {
        type            zeroGradient;
    }
    wall
    {
        type            zeroGradient;
    }
    frontAndBack
    {
        type            empty;
    }
}


// ************************************************************************* //
