/*--------------------------------*- C++ -*----------------------------------*\
| =========                 |                                                 |
| \\      /  F ield         | OpenFOAM: The Open Source CFD Toolbox           |
|  \\    /   O peration     | Version:  5.0                                   |
|   \\  /    A nd           | Web:      www.OpenFOAM.org                      |
|    \\/     M anipulation  |                                                 |
\*---------------------------------------------------------------------------*/
FoamFile
{
    version     2.0;
    format      ascii;
    class       volVectorField;
    location    "524";
    object      U;
}
// * * * * * * * * * * * * * * * * * * * * * * * * * * * * * * * * * * * * * //

dimensions      [0 1 -1 0 0 0 0];

internalField   nonuniform List<vector> 
1568
(
(1.58344e-18 -4.8115e-18 0)
(1.54494e-17 -1.07368e-17 0)
(4.11863e-17 -1.58676e-17 0)
(7.61812e-17 -1.98202e-17 0)
(1.17865e-16 -2.30584e-17 0)
(1.65349e-16 -2.57837e-17 0)
(2.17575e-16 -2.79309e-17 0)
(2.73466e-16 -2.95893e-17 0)
(3.32136e-16 -3.08076e-17 0)
(3.92751e-16 -3.1604e-17 0)
(4.54518e-16 -3.20113e-17 0)
(5.16708e-16 -3.20564e-17 0)
(5.78651e-16 -3.17652e-17 0)
(6.39714e-16 -3.11601e-17 0)
(6.99311e-16 -3.02642e-17 0)
(7.56901e-16 -2.90982e-17 0)
(8.11982e-16 -2.76844e-17 0)
(8.64094e-16 -2.60432e-17 0)
(9.12816e-16 -2.41957e-17 0)
(9.57769e-16 -2.21623e-17 0)
(9.98612e-16 -1.99635e-17 0)
(1.03506e-15 -1.76115e-17 0)
(1.06687e-15 -1.50798e-17 0)
(1.09357e-15 -1.19719e-17 0)
(1.11521e-15 -8.66098e-18 0)
(1.13184e-15 -5.68899e-18 0)
(1.14329e-15 -2.87146e-18 0)
(1.14897e-15 -7.65835e-19 0)
(1.14901e-15 7.4413e-19 0)
(1.14339e-15 2.84236e-18 0)
(1.132e-15 5.6572e-18 0)
(1.11543e-15 8.62268e-18 0)
(1.09385e-15 1.1933e-17 0)
(1.06721e-15 1.5051e-17 0)
(1.03545e-15 1.75853e-17 0)
(9.99052e-16 1.99389e-17 0)
(9.58254e-16 2.21407e-17 0)
(9.13342e-16 2.41761e-17 0)
(8.64655e-16 2.60268e-17 0)
(8.12573e-16 2.7671e-17 0)
(7.57515e-16 2.9088e-17 0)
(6.99944e-16 3.02566e-17 0)
(6.40358e-16 3.11564e-17 0)
(5.793e-16 3.17652e-17 0)
(5.17355e-16 3.20603e-17 0)
(4.55154e-16 3.20175e-17 0)
(3.93374e-16 3.16123e-17 0)
(3.32746e-16 3.08181e-17 0)
(2.74051e-16 2.96057e-17 0)
(2.18132e-16 2.79392e-17 0)
(1.65909e-16 2.57815e-17 0)
(1.18408e-16 2.30814e-17 0)
(7.66923e-17 1.97999e-17 0)
(4.17826e-17 1.58217e-17 0)
(1.65247e-17 1.06463e-17 0)
(2.16277e-18 4.41816e-18 0)
(4.39172e-19 -1.33872e-17 0)
(1.37335e-17 -3.08746e-17 0)
(3.65105e-17 -4.48219e-17 0)
(6.85014e-17 -5.64086e-17 0)
(1.07239e-16 -6.59786e-17 0)
(1.51346e-16 -7.37661e-17 0)
(1.99888e-16 -7.99783e-17 0)
(2.51944e-16 -8.4773e-17 0)
(3.06599e-16 -8.82656e-17 0)
(3.63051e-16 -9.05538e-17 0)
(4.20581e-16 -9.17212e-17 0)
(4.78511e-16 -9.18516e-17 0)
(5.36196e-16 -9.10152e-17 0)
(5.93051e-16 -8.92775e-17 0)
(6.48538e-16 -8.67049e-17 0)
(7.02147e-16 -8.33623e-17 0)
(7.53411e-16 -7.93075e-17 0)
(8.01907e-16 -7.46013e-17 0)
(8.47241e-16 -6.93017e-17 0)
(8.89059e-16 -6.34682e-17 0)
(9.27038e-16 -5.71571e-17 0)
(9.60889e-16 -5.04317e-17 0)
(9.9037e-16 -4.33648e-17 0)
(1.0153e-15 -3.60375e-17 0)
(1.03559e-15 -2.88105e-17 0)
(1.05108e-15 -2.13495e-17 0)
(1.06163e-15 -1.32232e-17 0)
(1.06691e-15 -4.48509e-18 0)
(1.06695e-15 4.38778e-18 0)
(1.06172e-15 1.31315e-17 0)
(1.05123e-15 2.1266e-17 0)
(1.0358e-15 2.87325e-17 0)
(1.01555e-15 3.59579e-17 0)
(9.90679e-16 4.32884e-17 0)
(9.61248e-16 5.03595e-17 0)
(9.27442e-16 5.70905e-17 0)
(8.89507e-16 6.34087e-17 0)
(8.47729e-16 6.92488e-17 0)
(8.02428e-16 7.45565e-17 0)
(7.53963e-16 7.92712e-17 0)
(7.02724e-16 8.33349e-17 0)
(6.49135e-16 8.66868e-17 0)
(5.93664e-16 8.92691e-17 0)
(5.36817e-16 9.10145e-17 0)
(4.79136e-16 9.18609e-17 0)
(4.21212e-16 9.17391e-17 0)
(3.63677e-16 9.05761e-17 0)
(3.07213e-16 8.82908e-17 0)
(2.5256e-16 8.47994e-17 0)
(2.00517e-16 8.00035e-17 0)
(1.51957e-16 7.37737e-17 0)
(1.07866e-16 6.59546e-17 0)
(6.92365e-17 5.63845e-17 0)
(3.73255e-17 4.46404e-17 0)
(1.48744e-17 3.00665e-17 0)
(6.06746e-19 1.25691e-17 0)
(1.77437e-19 -1.94627e-17 0)
(1.19782e-17 -4.79723e-17 0)
(3.18853e-17 -7.13302e-17 0)
(6.0962e-17 -9.03403e-17 0)
(9.62915e-17 -1.05916e-16 0)
(1.36901e-16 -1.18596e-16 0)
(1.81772e-16 -1.28667e-16 0)
(2.29914e-16 -1.36423e-16 0)
(2.80514e-16 -1.42062e-16 0)
(3.32826e-16 -1.45746e-16 0)
(3.86138e-16 -1.47621e-16 0)
(4.39809e-16 -1.47819e-16 0)
(4.9326e-16 -1.46459e-16 0)
(5.45939e-16 -1.43649e-16 0)
(5.97336e-16 -1.395e-16 0)
(6.46986e-16 -1.34109e-16 0)
(6.9446e-16 -1.27575e-16 0)
(7.39362e-16 -1.19994e-16 0)
(7.8133e-16 -1.11461e-16 0)
(8.20039e-16 -1.02066e-16 0)
(8.55196e-16 -9.19018e-17 0)
(8.8654e-16 -8.10588e-17 0)
(9.13851e-16 -6.96332e-17 0)
(9.36968e-16 -5.77536e-17 0)
(9.55701e-16 -4.55837e-17 0)
(9.69816e-16 -3.3062e-17 0)
(9.79254e-16 -2.00819e-17 0)
(9.84012e-16 -6.76818e-18 0)
(9.84036e-16 6.62966e-18 0)
(9.79327e-16 1.99463e-17 0)
(9.69939e-16 3.29325e-17 0)
(9.55874e-16 4.54589e-17 0)
(9.37186e-16 5.76336e-17 0)
(9.14113e-16 6.95183e-17 0)
(8.86844e-16 8.09519e-17 0)
(8.5554e-16 9.18025e-17 0)
(8.20418e-16 1.01977e-16 0)
(7.81742e-16 1.11382e-16 0)
(7.39805e-16 1.19928e-16 0)
(6.94928e-16 1.27521e-16 0)
(6.47475e-16 1.34068e-16 0)
(5.97843e-16 1.39472e-16 0)
(5.46459e-16 1.43636e-16 0)
(4.9379e-16 1.46458e-16 0)
(4.40345e-16 1.47832e-16 0)
(3.8667e-16 1.47645e-16 0)
(3.33356e-16 1.45777e-16 0)
(2.81045e-16 1.421e-16 0)
(2.30437e-16 1.36466e-16 0)
(1.82277e-16 1.28698e-16 0)
(1.37402e-16 1.18604e-16 0)
(9.6814e-17 1.05916e-16 0)
(6.14228e-17 9.02619e-17 0)
(3.23387e-17 7.11296e-17 0)
(1.23476e-17 4.7541e-17 0)
(2.19962e-19 1.93185e-17 0)
(1.24218e-19 -2.47254e-17 0)
(1.04642e-17 -6.29364e-17 0)
(2.80588e-17 -9.47062e-17 0)
(5.40646e-17 -1.20825e-16 0)
(8.61122e-17 -1.42161e-16 0)
(1.23079e-16 -1.5945e-16 0)
(1.64093e-16 -1.73197e-16 0)
(2.08236e-16 -1.83754e-16 0)
(2.54708e-16 -1.91405e-16 0)
(3.02779e-16 -1.96398e-16 0)
(3.51803e-16 -1.98941e-16 0)
(4.01183e-16 -1.99207e-16 0)
(4.5036e-16 -1.97364e-16 0)
(4.98821e-16 -1.9357e-16 0)
(5.46108e-16 -1.87965e-16 0)
(5.91783e-16 -1.80686e-16 0)
(6.35448e-16 -1.71872e-16 0)
(6.76743e-16 -1.61647e-16 0)
(7.15336e-16 -1.50142e-16 0)
(7.50928e-16 -1.3748e-16 0)
(7.83252e-16 -1.23787e-16 0)
(8.12072e-16 -1.09189e-16 0)
(8.37182e-16 -9.3815e-17 0)
(8.5841e-16 -7.78016e-17 0)
(8.75556e-16 -6.12943e-17 0)
(8.88433e-16 -4.43115e-17 0)
(8.96997e-16 -2.68425e-17 0)
(9.01288e-16 -9.03759e-18 0)
(9.01307e-16 8.86339e-18 0)
(8.97055e-16 2.66719e-17 0)
(8.88528e-16 4.41463e-17 0)
(8.75689e-16 6.11352e-17 0)
(8.5858e-16 7.76484e-17 0)
(8.37388e-16 9.36697e-17 0)
(8.1231e-16 1.09053e-16 0)
(7.8352e-16 1.23663e-16 0)
(7.51225e-16 1.37366e-16 0)
(7.1566e-16 1.50044e-16 0)
(6.77089e-16 1.61564e-16 0)
(6.35816e-16 1.71804e-16 0)
(5.92168e-16 1.80636e-16 0)
(5.46507e-16 1.87931e-16 0)
(4.99232e-16 1.93552e-16 0)
(4.50776e-16 1.97366e-16 0)
(4.01605e-16 1.99223e-16 0)
(3.52228e-16 1.98971e-16 0)
(3.03201e-16 1.96444e-16 0)
(2.55122e-16 1.91457e-16 0)
(2.08641e-16 1.83803e-16 0)
(1.6449e-16 1.7325e-16 0)
(1.23465e-16 1.59495e-16 0)
(8.64535e-17 1.42165e-16 0)
(5.4393e-17 1.20764e-16 0)
(2.83228e-17 9.46239e-17 0)
(1.06036e-17 6.26607e-17 0)
(1.44931e-19 2.47344e-17 0)
(1.169e-19 -2.94054e-17 0)
(9.11022e-18 -7.60282e-17 0)
(2.467e-17 -1.15589e-16 0)
(4.78225e-17 -1.48151e-16 0)
(7.65042e-17 -1.74911e-16 0)
(1.09808e-16 -1.96594e-16 0)
(1.46918e-16 -2.13799e-16 0)
(1.86964e-16 -2.26997e-16 0)
(2.29198e-16 -2.36565e-16 0)
(2.72949e-16 -2.42806e-16 0)
(3.17605e-16 -2.4598e-16 0)
(3.62604e-16 -2.46324e-16 0)
(4.07431e-16 -2.44052e-16 0)
(4.51618e-16 -2.39353e-16 0)
(4.94733e-16 -2.3241e-16 0)
(5.36376e-16 -2.23402e-16 0)
(5.76187e-16 -2.12489e-16 0)
(6.13832e-16 -1.99837e-16 0)
(6.49009e-16 -1.85601e-16 0)
(6.81446e-16 -1.69941e-16 0)
(7.10899e-16 -1.53007e-16 0)
(7.37152e-16 -1.34958e-16 0)
(7.60013e-16 -1.15947e-16 0)
(7.79313e-16 -9.61322e-17 0)
(7.94887e-16 -7.56554e-17 0)
(8.06601e-16 -5.45994e-17 0)
(8.14408e-16 -3.3031e-17 0)
(8.18317e-16 -1.11153e-17 0)
(8.1833e-16 1.09167e-17 0)
(8.14447e-16 3.28352e-17 0)
(8.06667e-16 5.44086e-17 0)
(7.94981e-16 7.5472e-17 0)
(7.79433e-16 9.59561e-17 0)
(7.60157e-16 1.15781e-16 0)
(7.3732e-16 1.34801e-16 0)
(7.1109e-16 1.52864e-16 0)
(6.81657e-16 1.69812e-16 0)
(6.49239e-16 1.85488e-16 0)
(6.14079e-16 1.99741e-16 0)
(5.76449e-16 2.12412e-16 0)
(5.36652e-16 2.23343e-16 0)
(4.95019e-16 2.32372e-16 0)
(4.51915e-16 2.39335e-16 0)
(4.07734e-16 2.44053e-16 0)
(3.62909e-16 2.46346e-16 0)
(3.17913e-16 2.46018e-16 0)
(2.73255e-16 2.42858e-16 0)
(2.29496e-16 2.3663e-16 0)
(1.87262e-16 2.27072e-16 0)
(1.47206e-16 2.1387e-16 0)
(1.10062e-16 1.96651e-16 0)
(7.67401e-17 1.7496e-16 0)
(4.80413e-17 1.48178e-16 0)
(2.48023e-17 1.15516e-16 0)
(9.19429e-18 7.59322e-17 0)
(1.03698e-19 2.94341e-17 0)
(7.53784e-20 -3.34955e-17 0)
(7.94177e-18 -8.76097e-17 0)
(2.15723e-17 -1.33978e-16 0)
(4.19847e-17 -1.72487e-16 0)
(6.73875e-17 -2.04204e-16 0)
(9.70505e-17 -2.29938e-16 0)
(1.30213e-16 -2.50379e-16 0)
(1.66092e-16 -2.66061e-16 0)
(2.04012e-16 -2.77423e-16 0)
(2.43354e-16 -2.84837e-16 0)
(2.83549e-16 -2.88621e-16 0)
(3.24078e-16 -2.8906e-16 0)
(3.64472e-16 -2.86405e-16 0)
(4.043e-16 -2.80892e-16 0)
(4.43164e-16 -2.72743e-16 0)
(4.80705e-16 -2.6216e-16 0)
(5.16593e-16 -2.49343e-16 0)
(5.50526e-16 -2.34484e-16 0)
(5.82231e-16 -2.17769e-16 0)
(6.11463e-16 -1.99381e-16 0)
(6.38e-16 -1.79501e-16 0)
(6.61646e-16 -1.5831e-16 0)
(6.82227e-16 -1.35983e-16 0)
(6.99589e-16 -1.12694e-16 0)
(7.13597e-16 -8.86062e-17 0)
(7.24143e-16 -6.38561e-17 0)
(7.31183e-16 -3.85823e-17 0)
(7.34708e-16 -1.29701e-17 0)
(7.34716e-16 1.27573e-17 0)
(7.31207e-16 3.83727e-17 0)
(7.24183e-16 6.36522e-17 0)
(7.13652e-16 8.84089e-17 0)
(6.99662e-16 1.12505e-16 0)
(6.82314e-16 1.35804e-16 0)
(6.61748e-16 1.58143e-16 0)
(6.38116e-16 1.79348e-16 0)
(6.11591e-16 1.99244e-16 0)
(5.82372e-16 2.17648e-16 0)
(5.50678e-16 2.34382e-16 0)
(5.16755e-16 2.4926e-16 0)
(4.80877e-16 2.62098e-16 0)
(4.43344e-16 2.72702e-16 0)
(4.04485e-16 2.80875e-16 0)
(3.64664e-16 2.86407e-16 0)
(3.24274e-16 2.89083e-16 0)
(2.83745e-16 2.88665e-16 0)
(2.43553e-16 2.84897e-16 0)
(2.04213e-16 2.77498e-16 0)
(1.66281e-16 2.66145e-16 0)
(1.30389e-16 2.50466e-16 0)
(9.72332e-17 2.30024e-16 0)
(6.75463e-17 2.04275e-16 0)
(4.20811e-17 1.72535e-16 0)
(2.16663e-17 1.3399e-16 0)
(8.00151e-18 8.7573e-17 0)
(7.7692e-20 3.35329e-17 0)
(6.1514e-20 -3.70291e-17 0)
(6.87372e-18 -9.77067e-17 0)
(1.86935e-17 -1.50074e-16 0)
(3.6463e-17 -1.93856e-16 0)
(5.86916e-17 -2.30033e-16 0)
(8.47249e-17 -2.59464e-16 0)
(1.13924e-16 -2.82871e-16 0)
(1.45606e-16 -3.00838e-16 0)
(1.79153e-16 -3.13863e-16 0)
(2.14006e-16 -3.22373e-16 0)
(2.49654e-16 -3.26736e-16 0)
(2.85627e-16 -3.27279e-16 0)
(3.21497e-16 -3.243e-16 0)
(3.56875e-16 -3.1807e-16 0)
(3.91406e-16 -3.08841e-16 0)
(4.24764e-16 -2.96852e-16 0)
(4.56653e-16 -2.8233e-16 0)
(4.86804e-16 -2.65493e-16 0)
(5.14974e-16 -2.46555e-16 0)
(5.40942e-16 -2.25722e-16 0)
(5.64512e-16 -2.03201e-16 0)
(5.85509e-16 -1.79192e-16 0)
(6.03778e-16 -1.53894e-16 0)
(6.19184e-16 -1.27499e-16 0)
(6.31614e-16 -1.00196e-16 0)
(6.4098e-16 -7.21591e-17 0)
(6.47238e-16 -4.35699e-17 0)
(6.5037e-16 -1.46346e-17 0)
(6.50374e-16 1.44185e-17 0)
(6.47247e-16 4.33563e-17 0)
(6.40996e-16 7.19504e-17 0)
(6.31636e-16 9.99946e-17 0)
(6.19213e-16 1.27307e-16 0)
(6.03813e-16 1.53711e-16 0)
(5.85551e-16 1.79022e-16 0)
(5.6456e-16 2.03045e-16 0)
(5.40996e-16 2.25582e-16 0)
(5.15034e-16 2.46432e-16 0)
(4.8687e-16 2.65389e-16 0)
(4.56725e-16 2.82246e-16 0)
(4.24841e-16 2.9679e-16 0)
(3.91488e-16 3.08801e-16 0)
(3.56963e-16 3.18052e-16 0)
(3.2159e-16 3.24304e-16 0)
(2.85724e-16 3.27305e-16 0)
(2.49756e-16 3.26782e-16 0)
(2.1411e-16 3.22438e-16 0)
(1.79255e-16 3.13945e-16 0)
(1.45713e-16 3.0093e-16 0)
(1.14032e-16 2.82974e-16 0)
(8.48087e-17 2.59569e-16 0)
(5.87688e-17 2.30124e-16 0)
(3.65482e-17 1.9393e-16 0)
(1.87325e-17 1.50127e-16 0)
(6.8816e-18 9.76888e-17 0)
(6.58348e-20 3.70818e-17 0)
(5.51888e-20 -4.00723e-17 0)
(5.85825e-18 -1.06381e-16 0)
(1.59659e-17 -1.6398e-16 0)
(3.11977e-17 -2.12356e-16 0)
(5.03093e-17 -2.52487e-16 0)
(7.27628e-17 -2.85215e-16 0)
(9.80173e-17 -3.11277e-16 0)
(1.25476e-16 -3.31305e-16 0)
(1.54603e-16 -3.45842e-16 0)
(1.84907e-16 -3.55354e-16 0)
(2.15936e-16 -3.60256e-16 0)
(2.47271e-16 -3.60916e-16 0)
(2.78532e-16 -3.57665e-16 0)
(3.09378e-16 -3.50812e-16 0)
(3.39491e-16 -3.40639e-16 0)
(3.68586e-16 -3.27414e-16 0)
(3.96401e-16 -3.1139e-16 0)
(4.227e-16 -2.92809e-16 0)
(4.47268e-16 -2.7191e-16 0)
(4.69914e-16 -2.48922e-16 0)
(4.90466e-16 -2.24069e-16 0)
(5.0877e-16 -1.97575e-16 0)
(5.24692e-16 -1.69657e-16 0)
(5.38117e-16 -1.40529e-16 0)
(5.48949e-16 -1.104e-16 0)
(5.57118e-16 -7.94774e-17 0)
(5.62579e-16 -4.79693e-17 0)
(5.65313e-16 -1.61007e-17 0)
(5.65312e-16 1.589e-17 0)
(5.62575e-16 4.77607e-17 0)
(5.57112e-16 7.92735e-17 0)
(5.48942e-16 1.10203e-16 0)
(5.38108e-16 1.4034e-16 0)
(5.24682e-16 1.69478e-16 0)
(5.08759e-16 1.97408e-16 0)
(4.90455e-16 2.23917e-16 0)
(4.69903e-16 2.48784e-16 0)
(4.47258e-16 2.7179e-16 0)
(4.2269e-16 2.92708e-16 0)
(3.96394e-16 3.11308e-16 0)
(3.68581e-16 3.27353e-16 0)
(3.3949e-16 3.40601e-16 0)
(3.09381e-16 3.50795e-16 0)
(2.78541e-16 3.5767e-16 0)
(2.47283e-16 3.60942e-16 0)
(2.15953e-16 3.60304e-16 0)
(1.84931e-16 3.5542e-16 0)
(1.54634e-16 3.45925e-16 0)
(1.25507e-16 3.31404e-16 0)
(9.80492e-17 3.11382e-16 0)
(7.28067e-17 2.85323e-16 0)
(5.03467e-17 2.52598e-16 0)
(3.12126e-17 2.12448e-16 0)
(1.59886e-17 1.64039e-16 0)
(5.8764e-18 1.06399e-16 0)
(5.1241e-20 4.01221e-17 0)
(4.19106e-20 -4.26437e-17 0)
(4.89269e-18 -1.13728e-16 0)
(1.33513e-17 -1.75765e-16 0)
(2.61242e-17 -2.28086e-16 0)
(4.21879e-17 -2.71625e-16 0)
(6.1108e-17 -3.07211e-16 0)
(8.24332e-17 -3.35598e-16 0)
(1.05662e-16 -3.57442e-16 0)
(1.30342e-16 -3.73314e-16 0)
(1.56051e-16 -3.8372e-16 0)
(1.82398e-16 -3.89114e-16 0)
(2.09028e-16 -3.89891e-16 0)
(2.35608e-16 -3.8642e-16 0)
(2.61843e-16 -3.79039e-16 0)
(2.87463e-16 -3.68059e-16 0)
(3.12219e-16 -3.5377e-16 0)
(3.35889e-16 -3.3645e-16 0)
(3.58268e-16 -3.16366e-16 0)
(3.79174e-16 -2.93774e-16 0)
(3.98443e-16 -2.68924e-16 0)
(4.15927e-16 -2.42059e-16 0)
(4.31496e-16 -2.13419e-16 0)
(4.45038e-16 -1.83241e-16 0)
(4.56455e-16 -1.51756e-16 0)
(4.65668e-16 -1.19195e-16 0)
(4.72618e-16 -8.57866e-17 0)
(4.77267e-16 -5.1762e-17 0)
(4.79594e-16 -1.73624e-17 0)
(4.79589e-16 1.71637e-17 0)
(4.77252e-16 5.15658e-17 0)
(4.72594e-16 8.55948e-17 0)
(4.65635e-16 1.1901e-16 0)
(4.56414e-16 1.51579e-16 0)
(4.44989e-16 1.83073e-16 0)
(4.31441e-16 2.13263e-16 0)
(4.15865e-16 2.41916e-16 0)
(3.98376e-16 2.68795e-16 0)
(3.79104e-16 2.93662e-16 0)
(3.58195e-16 3.16271e-16 0)
(3.35815e-16 3.36374e-16 0)
(3.12145e-16 3.53713e-16 0)
(2.8739e-16 3.68022e-16 0)
(2.61774e-16 3.79023e-16 0)
(2.35544e-16 3.86424e-16 0)
(2.0897e-16 3.89916e-16 0)
(1.82348e-16 3.89159e-16 0)
(1.56007e-16 3.83784e-16 0)
(1.30307e-16 3.73394e-16 0)
(1.05638e-16 3.57536e-16 0)
(8.24197e-17 3.35704e-16 0)
(6.10951e-17 3.07321e-16 0)
(4.21826e-17 2.71728e-16 0)
(2.61357e-17 2.28182e-16 0)
(1.33536e-17 1.75838e-16 0)
(4.89011e-18 1.13751e-16 0)
(4.29605e-20 4.26881e-17 0)
(3.34893e-20 -4.47587e-17 0)
(3.96371e-18 -1.19787e-16 0)
(1.08242e-17 -1.85498e-16 0)
(2.1202e-17 -2.411e-16 0)
(3.42766e-17 -2.87492e-16 0)
(4.97027e-17 -3.25486e-16 0)
(6.71202e-17 -3.55842e-16 0)
(8.61224e-17 -3.79229e-16 0)
(1.06337e-16 -3.96244e-16 0)
(1.27415e-16 -4.07421e-16 0)
(1.49038e-16 -4.13244e-16 0)
(1.70904e-16 -4.14133e-16 0)
(1.9274e-16 -4.10487e-16 0)
(2.14299e-16 -4.02676e-16 0)
(2.35359e-16 -3.91023e-16 0)
(2.55713e-16 -3.75846e-16 0)
(2.75173e-16 -3.57443e-16 0)
(2.93573e-16 -3.36099e-16 0)
(3.10761e-16 -3.12088e-16 0)
(3.26602e-16 -2.85676e-16 0)
(3.40974e-16 -2.57124e-16 0)
(3.53771e-16 -2.26686e-16 0)
(3.649e-16 -1.94614e-16 0)
(3.74282e-16 -1.61157e-16 0)
(3.81854e-16 -1.26561e-16 0)
(3.87567e-16 -9.10718e-17 0)
(3.91389e-16 -5.49389e-17 0)
(3.933e-16 -1.84164e-17 0)
(3.93292e-16 1.8237e-17 0)
(3.91365e-16 5.47612e-17 0)
(3.87528e-16 9.08977e-17 0)
(3.818e-16 1.26392e-16 0)
(3.74214e-16 1.60996e-16 0)
(3.64818e-16 1.94462e-16 0)
(3.53677e-16 2.26544e-16 0)
(3.4087e-16 2.56994e-16 0)
(3.26488e-16 2.85559e-16 0)
(3.1064e-16 3.11986e-16 0)
(2.93446e-16 3.36013e-16 0)
(2.75043e-16 3.57374e-16 0)
(2.55581e-16 3.75794e-16 0)
(2.35228e-16 3.9099e-16 0)
(2.1417e-16 4.0266e-16 0)
(1.92616e-16 4.10491e-16 0)
(1.70787e-16 4.14156e-16 0)
(1.4893e-16 4.13284e-16 0)
(1.27318e-16 4.07478e-16 0)
(1.06254e-16 3.96318e-16 0)
(8.60514e-17 3.79316e-16 0)
(6.70612e-17 3.55937e-16 0)
(4.96634e-17 3.25588e-16 0)
(3.42506e-17 2.87596e-16 0)
(2.11782e-17 2.41191e-16 0)
(1.08177e-17 1.85563e-16 0)
(3.96523e-18 1.19818e-16 0)
(3.28359e-20 4.4798e-17 0)
(2.49421e-20 -4.64355e-17 0)
(3.06106e-18 -1.24597e-16 0)
(8.36532e-18 -1.93232e-16 0)
(1.63958e-17 -2.51458e-16 0)
(2.65267e-17 -3.00139e-16 0)
(3.84971e-17 -3.40075e-16 0)
(5.20288e-17 -3.72024e-16 0)
(6.68103e-17 -3.96666e-16 0)
(8.25514e-17 -4.14614e-16 0)
(9.89741e-17 -4.26422e-16 0)
(1.15839e-16 -4.32612e-16 0)
(1.32892e-16 -4.33601e-16 0)
(1.49933e-16 -4.29813e-16 0)
(1.66763e-16 -4.21662e-16 0)
(1.83211e-16 -4.09475e-16 0)
(1.99106e-16 -3.93586e-16 0)
(2.14303e-16 -3.74312e-16 0)
(2.28672e-16 -3.51955e-16 0)
(2.42095e-16 -3.26803e-16 0)
(2.54465e-16 -2.99136e-16 0)
(2.65687e-16 -2.69227e-16 0)
(2.75678e-16 -2.37344e-16 0)
(2.84366e-16 -2.0375e-16 0)
(2.9169e-16 -1.68708e-16 0)
(2.976e-16 -1.32477e-16 0)
(3.0206e-16 -9.53173e-17 0)
(3.05043e-16 -5.749e-17 0)
(3.06533e-16 -1.92603e-17 0)
(3.06522e-16 1.91047e-17 0)
(3.05011e-16 5.7336e-17 0)
(3.02008e-16 9.51665e-17 0)
(2.97529e-16 1.32331e-16 0)
(2.91599e-16 1.68568e-16 0)
(2.84258e-16 2.03618e-16 0)
(2.75553e-16 2.3722e-16 0)
(2.65548e-16 2.69114e-16 0)
(2.54313e-16 2.99034e-16 0)
(2.41933e-16 3.26714e-16 0)
(2.28502e-16 3.5188e-16 0)
(2.14126e-16 3.74251e-16 0)
(1.98926e-16 3.9354e-16 0)
(1.8303e-16 4.09445e-16 0)
(1.66585e-16 4.21648e-16 0)
(1.4976e-16 4.29815e-16 0)
(1.32727e-16 4.33619e-16 0)
(1.15685e-16 4.32645e-16 0)
(9.88344e-17 4.2647e-16 0)
(8.24252e-17 4.14675e-16 0)
(6.67021e-17 3.96739e-16 0)
(5.19429e-17 3.72108e-16 0)
(3.8428e-17 3.40162e-16 0)
(2.64736e-17 3.00223e-16 0)
(1.63678e-17 2.51538e-16 0)
(8.35103e-18 1.93296e-16 0)
(3.05256e-18 1.24621e-16 0)
(2.53326e-20 4.64704e-17 0)
(1.78164e-20 -4.76857e-17 0)
(2.17883e-18 -1.28185e-16 0)
(5.95511e-18 -1.99007e-16 0)
(1.1676e-17 -2.59199e-16 0)
(1.89e-17 -3.096e-16 0)
(2.7442e-17 -3.51002e-16 0)
(3.71063e-17 -3.84158e-16 0)
(4.76737e-17 -4.09755e-16 0)
(5.89367e-17 -4.28416e-16 0)
(7.06823e-17 -4.40714e-16 0)
(8.27768e-17 -4.47183e-16 0)
(9.49638e-17 -4.48249e-16 0)
(1.07195e-16 -4.44368e-16 0)
(1.19244e-16 -4.35959e-16 0)
(1.31036e-16 -4.23367e-16 0)
(1.42428e-16 -4.0694e-16 0)
(1.53319e-16 -3.8701e-16 0)
(1.63617e-16 -3.63891e-16 0)
(1.73237e-16 -3.37879e-16 0)
(1.82101e-16 -3.09266e-16 0)
(1.90142e-16 -2.78335e-16 0)
(1.973e-16 -2.45363e-16 0)
(2.03523e-16 -2.10624e-16 0)
(2.0877e-16 -1.74389e-16 0)
(2.13003e-16 -1.36928e-16 0)
(2.16196e-16 -9.85101e-17 0)
(2.1833e-16 -5.9407e-17 0)
(2.19393e-16 -1.9891e-17 0)
(2.19381e-16 1.97631e-17 0)
(2.18292e-16 5.92804e-17 0)
(2.16134e-16 9.83863e-17 0)
(2.12917e-16 1.36808e-16 0)
(2.08661e-16 1.74274e-16 0)
(2.03394e-16 2.10515e-16 0)
(1.97151e-16 2.45262e-16 0)
(1.89975e-16 2.78242e-16 0)
(1.81919e-16 3.09182e-16 0)
(1.73042e-16 3.37805e-16 0)
(1.63412e-16 3.63828e-16 0)
(1.53106e-16 3.86959e-16 0)
(1.42211e-16 4.069e-16 0)
(1.30817e-16 4.2334e-16 0)
(1.19027e-16 4.35944e-16 0)
(1.06983e-16 4.44366e-16 0)
(9.4761e-17 4.4826e-16 0)
(8.25862e-17 4.47207e-16 0)
(7.05063e-17 4.4075e-16 0)
(5.87805e-17 4.28462e-16 0)
(4.75398e-17 4.09812e-16 0)
(3.69909e-17 3.8422e-16 0)
(2.73514e-17 3.5107e-16 0)
(1.88394e-17 3.09672e-16 0)
(1.16332e-17 2.59261e-16 0)
(5.93006e-18 1.99053e-16 0)
(2.17053e-18 1.28208e-16 0)
(1.68909e-20 4.77138e-17 0)
(1.06019e-20 -4.85177e-17 0)
(1.30905e-18 -1.30571e-16 0)
(3.5786e-18 -2.0285e-16 0)
(7.01586e-18 -2.64353e-16 0)
(1.13567e-17 -3.15905e-16 0)
(1.64902e-17 -3.58287e-16 0)
(2.22998e-17 -3.92253e-16 0)
(2.86562e-17 -4.18494e-16 0)
(3.54276e-17 -4.37639e-16 0)
(4.24871e-17 -4.50261e-16 0)
(4.9905e-17 -4.56852e-16 0)
(5.7005e-17 -4.57938e-16 0)
(6.4521e-17 -4.54089e-16 0)
(7.17567e-17 -4.45515e-16 0)
(7.885e-17 -4.32653e-16 0)
(8.57042e-17 -4.15867e-16 0)
(9.22553e-17 -3.95499e-16 0)
(9.84518e-17 -3.7187e-16 0)
(1.0424e-16 -3.45284e-16 0)
(1.09573e-16 -3.16038e-16 0)
(1.1441e-16 -2.84423e-16 0)
(1.18716e-16 -2.50722e-16 0)
(1.22458e-16 -2.15217e-16 0)
(1.25611e-16 -1.78183e-16 0)
(1.28154e-16 -1.39899e-16 0)
(1.30071e-16 -1.0064e-16 0)
(1.3135e-16 -6.06836e-17 0)
(1.31984e-16 -2.03069e-17 0)
(1.3197e-16 2.021e-17 0)
(1.31308e-16 6.05876e-17 0)
(1.30002e-16 1.00546e-16 0)
(1.28058e-16 1.39808e-16 0)
(1.2549e-16 1.78096e-16 0)
(1.22313e-16 2.15134e-16 0)
(1.18549e-16 2.50645e-16 0)
(1.14223e-16 2.84351e-16 0)
(1.09369e-16 3.15973e-16 0)
(1.04021e-16 3.45226e-16 0)
(9.82203e-17 3.7182e-16 0)
(9.20149e-17 3.95458e-16 0)
(8.54583e-17 4.15835e-16 0)
(7.86021e-17 4.3263e-16 0)
(7.15104e-17 4.45501e-16 0)
(6.42803e-17 4.54084e-16 0)
(5.67721e-17 4.57941e-16 0)
(4.96869e-17 4.56863e-16 0)
(4.22865e-17 4.50281e-16 0)
(3.52469e-17 4.37667e-16 0)
(2.84969e-17 4.18529e-16 0)
(2.21702e-17 3.92296e-16 0)
(1.63899e-17 3.58333e-16 0)
(1.12747e-17 3.15949e-16 0)
(6.96293e-18 2.64397e-16 0)
(3.55557e-18 2.02886e-16 0)
(1.29775e-18 1.30582e-16 0)
(1.03045e-20 4.85404e-17 0)
(4.97669e-21 -4.89358e-17 0)
(4.48201e-19 -1.31769e-16 0)
(1.22185e-18 -2.0478e-16 0)
(2.38985e-18 -2.66941e-16 0)
(3.86179e-18 -3.1907e-16 0)
(5.59929e-18 -3.61943e-16 0)
(7.56137e-18 -3.96313e-16 0)
(9.70629e-18 -4.2287e-16 0)
(1.19821e-17 -4.42259e-16 0)
(1.43002e-17 -4.55057e-16 0)
(1.6814e-17 -4.61794e-16 0)
(1.92559e-17 -4.63017e-16 0)
(2.19721e-17 -4.59003e-16 0)
(2.42724e-17 -4.50296e-16 0)
(2.6639e-17 -4.37291e-16 0)
(2.89389e-17 -4.20336e-16 0)
(3.11345e-17 -3.99754e-16 0)
(3.32124e-17 -3.7587e-16 0)
(3.51533e-17 -3.48995e-16 0)
(3.69407e-17 -3.19432e-16 0)
(3.85603e-17 -2.87473e-16 0)
(4.00003e-17 -2.53406e-16 0)
(4.12503e-17 -2.17515e-16 0)
(4.23018e-17 -1.80081e-16 0)
(4.31476e-17 -1.41383e-16 0)
(4.37825e-17 -1.01702e-16 0)
(4.42025e-17 -6.1316e-17 0)
(4.44056e-17 -2.05074e-17 0)
(4.43907e-17 2.0443e-17 0)
(4.41578e-17 6.12526e-17 0)
(4.37085e-17 1.0164e-16 0)
(4.30453e-17 1.41323e-16 0)
(4.21723e-17 1.80023e-16 0)
(4.10955e-17 2.1746e-16 0)
(3.98216e-17 2.53354e-16 0)
(3.83601e-17 2.87425e-16 0)
(3.67215e-17 3.19388e-16 0)
(3.49179e-17 3.48956e-16 0)
(3.29638e-17 3.75835e-16 0)
(3.08762e-17 3.99724e-16 0)
(2.86742e-17 4.20311e-16 0)
(2.6372e-17 4.3727e-16 0)
(2.4007e-17 4.5028e-16 0)
(2.17127e-17 4.58993e-16 0)
(1.90055e-17 4.63012e-16 0)
(1.65771e-17 4.61792e-16 0)
(1.4081e-17 4.5506e-16 0)
(1.17851e-17 4.42267e-16 0)
(9.53671e-18 4.22883e-16 0)
(7.41562e-18 3.96329e-16 0)
(5.47904e-18 3.61963e-16 0)
(3.78059e-18 3.19093e-16 0)
(2.33713e-18 2.66961e-16 0)
(1.18451e-18 2.04792e-16 0)
(4.32198e-19 1.31773e-16 0)
(3.34358e-21 4.89511e-17 0)
(-2.30022e-21 -4.89444e-17 0)
(-4.10353e-19 -1.31784e-16 0)
(-1.12907e-18 -2.04805e-16 0)
(-2.22625e-18 -2.66973e-16 0)
(-3.6179e-18 -3.19105e-16 0)
(-5.27038e-18 -3.61981e-16 0)
(-7.14572e-18 -3.96351e-16 0)
(-9.20276e-18 -4.22907e-16 0)
(-1.13934e-17 -4.42295e-16 0)
(-1.36309e-17 -4.55092e-16 0)
(-1.60635e-17 -4.61827e-16 0)
(-1.84332e-17 -4.63048e-16 0)
(-2.10788e-17 -4.59032e-16 0)
(-2.33157e-17 -4.50322e-16 0)
(-2.56254e-17 -4.37313e-16 0)
(-2.78749e-17 -4.20356e-16 0)
(-3.00265e-17 -3.99771e-16 0)
(-3.20671e-17 -3.75883e-16 0)
(-3.39774e-17 -3.49005e-16 0)
(-3.57407e-17 -3.19439e-16 0)
(-3.73431e-17 -2.87477e-16 0)
(-3.87722e-17 -2.53407e-16 0)
(-4.00178e-17 -2.17513e-16 0)
(-4.10712e-17 -1.80076e-16 0)
(-4.19252e-17 -1.41375e-16 0)
(-4.2574e-17 -1.01691e-16 0)
(-4.30139e-17 -6.1303e-17 0)
(-4.32423e-17 -2.04915e-17 0)
(-4.32576e-17 2.04609e-17 0)
(-4.30599e-17 6.12725e-17 0)
(-4.26502e-17 1.01661e-16 0)
(-4.20305e-17 1.41346e-16 0)
(-4.12046e-17 1.80048e-16 0)
(-4.01776e-17 2.17486e-16 0)
(-3.89564e-17 2.53381e-16 0)
(-3.75495e-17 2.87452e-16 0)
(-3.59671e-17 3.19416e-16 0)
(-3.42206e-17 3.48984e-16 0)
(-3.23241e-17 3.75863e-16 0)
(-3.02939e-17 3.99752e-16 0)
(-2.8149e-17 4.20338e-16 0)
(-2.59026e-17 4.37296e-16 0)
(-2.35915e-17 4.50305e-16 0)
(-2.13496e-17 4.59016e-16 0)
(-1.86929e-17 4.63034e-16 0)
(-1.63096e-17 4.61813e-16 0)
(-1.38576e-17 4.55078e-16 0)
(-1.15996e-17 4.42282e-16 0)
(-9.38684e-18 4.22896e-16 0)
(-7.29731e-18 3.96342e-16 0)
(-5.38658e-18 3.61972e-16 0)
(-3.71469e-18 3.19097e-16 0)
(-2.29466e-18 2.66969e-16 0)
(-1.15772e-18 2.04801e-16 0)
(-4.23676e-19 1.31774e-16 0)
(-3.8579e-21 4.89531e-17 0)
(-8.33983e-21 -4.85425e-17 0)
(-1.27239e-18 -1.30617e-16 0)
(-3.48918e-18 -2.02924e-16 0)
(-6.85742e-18 -2.64445e-16 0)
(-1.11205e-17 -3.16009e-16 0)
(-1.61726e-17 -3.58397e-16 0)
(-2.18983e-17 -3.92365e-16 0)
(-2.81697e-17 -4.18605e-16 0)
(-3.48583e-17 -4.37747e-16 0)
(-4.18379e-17 -4.50365e-16 0)
(-4.91795e-17 -4.5695e-16 0)
(-5.6205e-17 -4.58029e-16 0)
(-6.36576e-17 -4.54173e-16 0)
(-7.08326e-17 -4.45591e-16 0)
(-7.78713e-17 -4.3272e-16 0)
(-8.46769e-17 -4.15925e-16 0)
(-9.11855e-17 -3.95548e-16 0)
(-9.73459e-17 -3.71909e-16 0)
(-1.03105e-16 -3.45313e-16 0)
(-1.08414e-16 -3.16058e-16 0)
(-1.13234e-16 -2.84434e-16 0)
(-1.17529e-16 -2.50724e-16 0)
(-1.21267e-16 -2.1521e-16 0)
(-1.24422e-16 -1.78168e-16 0)
(-1.26973e-16 -1.39876e-16 0)
(-1.28903e-16 -1.00609e-16 0)
(-1.30201e-16 -6.06441e-17 0)
(-1.3086e-16 -2.02605e-17 0)
(-1.30875e-16 2.02633e-17 0)
(-1.30247e-16 6.06469e-17 0)
(-1.28979e-16 1.00611e-16 0)
(-1.27078e-16 1.39878e-16 0)
(-1.24555e-16 1.7817e-16 0)
(-1.21426e-16 2.15211e-16 0)
(-1.17713e-16 2.50725e-16 0)
(-1.1344e-16 2.84433e-16 0)
(-1.0864e-16 3.16056e-16 0)
(-1.03347e-16 3.4531e-16 0)
(-9.76028e-17 3.71903e-16 0)
(-9.1453e-17 3.9554e-16 0)
(-8.49513e-17 4.15914e-16 0)
(-7.8149e-17 4.32706e-16 0)
(-7.11096e-17 4.45574e-16 0)
(-6.39295e-17 4.54152e-16 0)
(-5.6467e-17 4.58004e-16 0)
(-4.94284e-17 4.56922e-16 0)
(-4.20704e-17 4.50333e-16 0)
(-3.50681e-17 4.37713e-16 0)
(-2.8351e-17 4.18568e-16 0)
(-2.20562e-17 3.92328e-16 0)
(-1.63061e-17 3.58362e-16 0)
(-1.12106e-17 3.15976e-16 0)
(-6.91491e-18 2.64414e-16 0)
(-3.5339e-18 2.02898e-16 0)
(-1.29367e-18 1.30595e-16 0)
(-1.02846e-20 4.85443e-17 0)
(-1.48356e-20 -4.77258e-17 0)
(-2.14462e-18 -1.28258e-16 0)
(-5.87064e-18 -1.99126e-16 0)
(-1.15286e-17 -2.59348e-16 0)
(-1.86805e-17 -3.09768e-16 0)
(-2.71463e-17 -3.51179e-16 0)
(-3.67334e-17 -3.84339e-16 0)
(-4.72225e-17 -4.09935e-16 0)
(-5.84087e-17 -4.2859e-16 0)
(-7.008e-17 -4.40883e-16 0)
(-8.2104e-17 -4.47343e-16 0)
(-9.4225e-17 -4.48397e-16 0)
(-1.06394e-16 -4.44502e-16 0)
(-1.18387e-16 -4.3608e-16 0)
(-1.30128e-16 -4.23474e-16 0)
(-1.41475e-16 -4.07032e-16 0)
(-1.52326e-16 -3.87088e-16 0)
(-1.62591e-16 -3.63954e-16 0)
(-1.72182e-16 -3.37927e-16 0)
(-1.81024e-16 -3.09299e-16 0)
(-1.89049e-16 -2.78353e-16 0)
(-1.96197e-16 -2.45367e-16 0)
(-2.02417e-16 -2.10613e-16 0)
(-2.07664e-16 -1.74364e-16 0)
(-2.11904e-16 -1.36889e-16 0)
(-2.1511e-16 -9.84584e-17 0)
(-2.17262e-16 -5.93422e-17 0)
(-2.18348e-16 -1.98151e-17 0)
(-2.18363e-16 1.98505e-17 0)
(-2.17306e-16 5.93771e-17 0)
(-2.15183e-16 9.84924e-17 0)
(-2.12005e-16 1.36921e-16 0)
(-2.07792e-16 1.74395e-16 0)
(-2.0257e-16 2.10641e-16 0)
(-1.96374e-16 2.45392e-16 0)
(-1.89247e-16 2.78375e-16 0)
(-1.81242e-16 3.09318e-16 0)
(-1.72416e-16 3.37941e-16 0)
(-1.62838e-16 3.63963e-16 0)
(-1.52584e-16 3.87091e-16 0)
(-1.4174e-16 4.07029e-16 0)
(-1.30397e-16 4.23463e-16 0)
(-1.18656e-16 4.36062e-16 0)
(-1.06659e-16 4.44476e-16 0)
(-9.44816e-17 4.48363e-16 0)
(-8.2348e-17 4.47302e-16 0)
(-7.03055e-17 4.40834e-16 0)
(-5.86159e-17 4.28534e-16 0)
(-4.74097e-17 4.09876e-16 0)
(-3.68869e-17 3.84277e-16 0)
(-2.72645e-17 3.51114e-16 0)
(-1.87842e-17 3.09705e-16 0)
(-1.16037e-17 2.59294e-16 0)
(-5.90174e-18 1.9908e-16 0)
(-2.15998e-18 1.28222e-16 0)
(-1.76275e-20 4.77211e-17 0)
(-2.22724e-20 -4.649e-17 0)
(-3.0301e-18 -1.24695e-16 0)
(-8.29026e-18 -1.9339e-16 0)
(-1.62644e-17 -2.51657e-16 0)
(-2.63329e-17 -3.00363e-16 0)
(-3.82366e-17 -3.40312e-16 0)
(-5.17004e-17 -3.72267e-16 0)
(-6.64123e-17 -3.96908e-16 0)
(-8.20864e-17 -4.14849e-16 0)
(-9.84445e-17 -4.26648e-16 0)
(-1.15246e-16 -4.32826e-16 0)
(-1.32241e-16 -4.338e-16 0)
(-1.49228e-16 -4.29995e-16 0)
(-1.66006e-16 -4.21825e-16 0)
(-1.82409e-16 -4.0962e-16 0)
(-1.98263e-16 -3.9371e-16 0)
(-2.13425e-16 -3.74418e-16 0)
(-2.27764e-16 -3.5204e-16 0)
(-2.41161e-16 -3.26868e-16 0)
(-2.53511e-16 -2.99179e-16 0)
(-2.64719e-16 -2.69251e-16 0)
(-2.74701e-16 -2.37347e-16 0)
(-2.83385e-16 -2.03735e-16 0)
(-2.9071e-16 -1.68673e-16 0)
(-2.96627e-16 -1.32425e-16 0)
(-3.01097e-16 -9.5246e-17 0)
(-3.04095e-16 -5.74034e-17 0)
(-3.05605e-16 -1.91562e-17 0)
(-3.05619e-16 1.92217e-17 0)
(-3.04136e-16 5.74681e-17 0)
(-3.01165e-16 9.53091e-17 0)
(-2.9672e-16 1.32486e-16 0)
(-2.90828e-16 1.68731e-16 0)
(-2.83526e-16 2.0379e-16 0)
(-2.74864e-16 2.37396e-16 0)
(-2.64902e-16 2.69296e-16 0)
(-2.53713e-16 2.99217e-16 0)
(-2.41378e-16 3.26899e-16 0)
(-2.27994e-16 3.52062e-16 0)
(-2.13665e-16 3.74431e-16 0)
(-1.9851e-16 3.93713e-16 0)
(-1.8266e-16 4.09613e-16 0)
(-1.66258e-16 4.21806e-16 0)
(-1.49476e-16 4.29965e-16 0)
(-1.32481e-16 4.33758e-16 0)
(-1.15476e-16 4.32772e-16 0)
(-9.86625e-17 4.26582e-16 0)
(-8.22831e-17 4.14776e-16 0)
(-6.65816e-17 3.96826e-16 0)
(-5.18545e-17 3.72176e-16 0)
(-3.837e-17 3.40224e-16 0)
(-2.64198e-17 3.00277e-16 0)
(-1.63215e-17 2.51575e-16 0)
(-8.34033e-18 1.93322e-16 0)
(-3.0542e-18 1.24648e-16 0)
(-2.56468e-20 4.64782e-17 0)
(-2.9728e-20 -4.48261e-17 0)
(-3.93799e-18 -1.19904e-16 0)
(-1.07615e-17 -1.85687e-16 0)
(-2.10942e-17 -2.4134e-16 0)
(-3.41175e-17 -2.87762e-16 0)
(-4.94908e-17 -3.25773e-16 0)
(-6.68532e-17 -3.56135e-16 0)
(-8.57985e-17 -3.79521e-16 0)
(-1.05958e-16 -3.96529e-16 0)
(-1.26982e-16 -4.07694e-16 0)
(-1.48553e-16 -4.13502e-16 0)
(-1.7037e-16 -4.14373e-16 0)
(-1.9216e-16 -4.10707e-16 0)
(-2.13677e-16 -4.02873e-16 0)
(-2.34699e-16 -3.91198e-16 0)