/*--------------------------------*- C++ -*----------------------------------*\
| =========                 |                                                 |
| \\      /  F ield         | OpenFOAM: The Open Source CFD Toolbox           |
|  \\    /   O peration     | Version:  5.0                                   |
|   \\  /    A nd           | Web:      www.OpenFOAM.org                      |
|    \\/     M anipulation  |                                                 |
\*---------------------------------------------------------------------------*/
FoamFile
{
    version     2.0;
    format      ascii;
    class       surfaceScalarField;
    location    "353";
    object      phi;
}
// * * * * * * * * * * * * * * * * * * * * * * * * * * * * * * * * * * * * * //

dimensions      [0 3 -1 0 0 0 0];

internalField   nonuniform List<scalar> 
3052
(
8.83804e-24
-1.07382e-23
3.2696e-23
-2.38583e-23
7.04668e-23
-3.78657e-23
1.16787e-22
-4.64334e-23
1.70422e-22
-5.37376e-23
2.31018e-22
-6.06806e-23
2.96495e-22
-6.55489e-23
3.65782e-22
-6.93502e-23
4.38031e-22
-7.23059e-23
5.12161e-22
-7.41816e-23
5.87204e-22
-7.50918e-23
6.62354e-22
-7.5196e-23
7.3684e-22
-7.45295e-23
8.099e-22
-7.31005e-23
8.80856e-22
-7.09946e-23
9.49083e-22
-6.82643e-23
1.01399e-21
-6.49424e-23
1.07505e-21
-6.10916e-23
1.13177e-21
-5.67532e-23
1.18373e-21
-5.1985e-23
1.23053e-21
-4.682e-23
1.27183e-21
-4.13209e-23
1.30733e-21
-3.55208e-23
1.33667e-21
-2.9354e-23
1.35983e-21
-2.31681e-23
1.37679e-21
-1.69757e-23
1.38709e-21
-1.03054e-23
1.39054e-21
-3.44287e-24
1.38719e-21
3.35252e-24
1.377e-21
1.02012e-23
1.36013e-21
1.68812e-23
1.33707e-21
2.30787e-23
1.30781e-21
2.92807e-23
1.27239e-21
3.54414e-23
1.23118e-21
4.1246e-23
1.18447e-21
4.67346e-23
1.13258e-21
5.19263e-23
1.07594e-21
5.66813e-23
1.01493e-21
6.10376e-23
9.50078e-22
6.48944e-23
8.81896e-22
6.82197e-23
8.10994e-22
7.09412e-23
7.37965e-22
7.30687e-23
6.63515e-22
7.44908e-23
5.8837e-22
7.51887e-23
5.13335e-22
7.50811e-23
4.39251e-22
7.41309e-23
3.67048e-22
7.22552e-23
2.97683e-22
6.9421e-23
2.32246e-22
6.54874e-23
1.71928e-22
6.03756e-23
1.17989e-22
5.40033e-23
7.18119e-23
4.62335e-23
3.50274e-23
3.68456e-23
1.04925e-23
2.45873e-23
1.04993e-23
9.4707e-24
-2.01877e-23
3.16945e-23
-4.63284e-23
6.38354e-23
-7.03364e-23
1.06063e-22
-8.89905e-23
1.56416e-22
-1.04378e-22
2.12213e-22
-1.16724e-22
2.7296e-22
-1.26508e-22
3.37581e-22
-1.3416e-22
4.04788e-22
-1.39683e-22
4.73724e-22
-1.43275e-22
5.4361e-22
-1.45122e-22
6.13604e-22
-1.45327e-22
6.82931e-22
-1.43985e-22
7.50932e-22
-1.41224e-22
8.16978e-22
-1.37155e-22
8.80465e-22
-1.31859e-22
9.40861e-22
-1.25438e-22
9.9767e-22
-1.17992e-22
1.05044e-21
-1.09606e-22
1.09875e-21
-1.00372e-22
1.14225e-21
-9.03811e-23
1.1806e-21
-7.9728e-23
1.21353e-21
-6.84953e-23
1.24091e-21
-5.67799e-23
1.26262e-21
-4.49024e-23
1.27834e-21
-3.27208e-23
1.28796e-21
-1.99249e-23
1.29123e-21
-6.71476e-24
1.28806e-21
6.54943e-24
1.27852e-21
1.97682e-23
1.26287e-21
3.25805e-23
1.24124e-21
4.47617e-23
1.21395e-21
5.6643e-23
1.18111e-21
6.8361e-23
1.14284e-21
7.96109e-23
1.0994e-21
9.02623e-23
1.05117e-21
1.00268e-22
9.98453e-22
1.09502e-22
9.417e-22
1.17901e-22
8.81356e-22
1.25351e-22
8.17907e-22
1.31785e-22
7.5188e-22
1.37087e-22
6.83896e-22
1.41177e-22
6.14579e-22
1.43939e-22
5.44616e-22
1.45289e-22
4.74741e-22
1.45099e-22
4.05759e-22
1.43267e-22
3.38526e-22
1.39654e-22
2.73984e-22
1.34122e-22
2.13155e-22
1.265e-22
1.5708e-22
1.16637e-22
1.07032e-22
1.04224e-22
6.45543e-23
8.89049e-23
3.13614e-23
7.02022e-23
8.93715e-24
4.71715e-23
1.94449e-23
6.44911e-24
-2.67022e-23
2.65421e-23
-6.65957e-23
5.64303e-23
-1.00456e-22
9.51937e-23
-1.27998e-22
1.40841e-22
-1.50254e-22
1.92488e-22
-1.68572e-22
2.48757e-22
-1.82951e-22
3.08468e-22
-1.94025e-22
3.70717e-22
-2.02069e-22
4.34639e-22
-2.07321e-22
4.99389e-22
-2.09987e-22
5.64211e-22
-2.10255e-22
6.2845e-22
-2.08324e-22
6.91458e-22
-2.04324e-22
7.52628e-22
-1.9841e-22
8.11423e-22
-1.90733e-22
8.67353e-22
-1.8144e-22
9.19944e-22
-1.70648e-22
9.68789e-22
-1.58508e-22
1.01351e-21
-1.45145e-22
1.05378e-21
-1.30695e-22
1.0893e-21
-1.15281e-22
1.11982e-21
-9.90521e-23
1.14518e-21
-8.21627e-23
1.16509e-21
-6.48223e-23
1.17933e-21
-4.69724e-23
1.18793e-21
-2.85237e-23
1.19084e-21
-9.62099e-24
1.188e-21
9.40979e-24
1.17948e-21
2.83131e-23
1.16532e-21
4.67712e-23
1.14549e-21
6.46309e-23
1.1202e-21
8.19841e-23
1.08973e-21
9.88761e-23
1.05429e-21
1.15113e-22
1.01408e-21
1.30536e-22
9.69423e-22
1.45001e-22
9.20629e-22
1.58373e-22
8.68085e-22
1.70525e-22
8.12192e-22
1.81329e-22
7.53429e-22
1.90636e-22
6.92286e-22
1.98324e-22
6.29311e-22
2.04251e-22
5.65079e-22
2.08274e-22
5.00251e-22
2.10227e-22
4.35505e-22
2.09965e-22
3.71591e-22
2.07304e-22
3.09325e-22
2.02051e-22
2.49581e-22
1.94021e-22
1.93275e-22
1.82947e-22
1.41592e-22
1.68466e-22
9.56994e-23
1.50288e-22
5.68427e-23
1.27899e-22
2.67075e-23
1.0052e-22
7.14832e-24
6.68364e-23
2.66003e-23
6.00975e-24
-3.27209e-23
2.32854e-23
-8.39785e-23
4.98297e-23
-1.27153e-22
8.46648e-23
-1.63005e-22
1.26453e-22
-1.92209e-22
1.73518e-22
-2.15788e-22
2.24984e-22
-2.34552e-22
2.79793e-22
-2.4895e-22
3.36976e-22
-2.59353e-22
3.95714e-22
-2.6615e-22
4.55269e-22
-2.69626e-22
5.14928e-22
-2.69989e-22
5.74022e-22
-2.67487e-22
6.31977e-22
-2.62342e-22
6.8825e-22
-2.5474e-22
7.42338e-22
-2.44871e-22
7.9377e-22
-2.32917e-22
8.4214e-22
-2.19056e-22
8.87058e-22
-2.0346e-22
9.28181e-22
-1.86298e-22
9.65201e-22
-1.67739e-22
9.97858e-22
-1.47958e-22
1.02592e-21
-1.27125e-22
1.04916e-21
-1.05418e-22
1.06734e-21
-8.30106e-23
1.08033e-21
-5.99582e-23
1.08812e-21
-3.63055e-23
1.09074e-21
-1.22335e-23
1.08818e-21
1.19709e-23
1.08046e-21
3.6053e-23
1.06753e-21
5.97151e-23
1.04941e-21
8.27768e-23
1.02623e-21
1.05188e-22
9.98224e-22
1.26908e-22
9.65618e-22
1.47751e-22
9.28641e-22
1.6755e-22
8.87566e-22
1.86117e-22
8.42688e-22
2.03297e-22
7.94359e-22
2.18905e-22
7.42962e-22
2.32782e-22
6.88905e-22
2.44755e-22
6.32649e-22
2.54647e-22
5.74707e-22
2.62266e-22
5.15623e-22
2.67436e-22
4.55982e-22
2.69953e-22
3.96431e-22
2.69603e-22
3.37674e-22
2.6616e-22
2.80454e-22
2.59383e-22
2.25625e-22
2.48955e-22
1.74148e-22
2.3455e-22
1.26925e-22
2.15826e-22
8.50707e-23
1.92249e-22
5.01118e-23
1.62996e-22
2.33786e-23
1.27356e-22
6.26621e-24
8.40704e-23
3.28723e-23
5.51033e-24
-3.82571e-23
2.01957e-23
-9.87291e-23
4.40887e-23
-1.51141e-22
7.51816e-23
-1.94211e-22
1.12595e-22
-2.2974e-22
1.55144e-22
-2.58448e-22
2.01782e-22
-2.8129e-22
2.51526e-22
-2.98782e-22
3.03537e-22
-3.11442e-22
3.57042e-22
-3.19724e-22
4.11288e-22
-3.23933e-22
4.65641e-22
-3.24397e-22
5.19519e-22
-3.21414e-22
5.72365e-22
-3.1523e-22
6.23671e-22
-3.06083e-22
6.72982e-22
-2.94215e-22
7.19872e-22
-2.79836e-22
7.63961e-22
-2.63169e-22
8.04897e-22
-2.44415e-22
8.4237e-22
-2.23788e-22
8.761e-22
-2.01482e-22
9.05842e-22
-1.77709e-22
9.3137e-22
-1.52659e-22
9.52492e-22
-1.26543e-22
9.69018e-22
-9.95356e-23
9.80843e-22
-7.17803e-23
9.87942e-22
-4.33986e-23
9.90326e-22
-1.46101e-23
9.87986e-22
1.43194e-23
9.80936e-22
4.3112e-23
9.69163e-22
7.1499e-23
9.52685e-22
9.92663e-23
9.31601e-22
1.26284e-22
9.06113e-22
1.52412e-22
8.76411e-22
1.7747e-22
8.42722e-22
2.0126e-22
8.05281e-22
2.23581e-22
7.6438e-22
2.44226e-22
7.20319e-22
2.63e-22
6.7345e-22
2.7969e-22
6.2416e-22
2.94089e-22
5.72878e-22
3.05979e-22
5.20046e-22
3.15153e-22
4.66178e-22
3.21364e-22
4.11819e-22
3.24377e-22
3.57564e-22
3.23932e-22
3.04058e-22
3.19746e-22
2.52041e-22
3.11482e-22
2.0227e-22
2.9883e-22
1.55537e-22
2.81383e-22
1.12908e-22
2.58545e-22
7.54984e-23
2.29771e-22
4.4159e-23
1.94421e-22
2.02945e-23
1.51352e-22
5.21168e-24
9.92125e-23
3.80883e-23
4.46474e-24
-4.27231e-23
1.77354e-23
-1.12045e-22
3.85353e-23
-1.72003e-22
6.61486e-23
-2.21902e-22
9.93973e-23
-2.63074e-22
1.3738e-22
-2.96515e-22
1.79109e-22
-3.23097e-22
2.23724e-22
-3.43467e-22
2.70456e-22
-3.58236e-22
3.18573e-22
-3.67896e-22
3.67413e-22
-3.72821e-22
4.16387e-22
-3.73414e-22
4.64942e-22
-3.70006e-22
5.12569e-22
-3.6289e-22
5.5882e-22
-3.5236e-22
6.03269e-22
-3.38687e-22
6.45538e-22
-3.22124e-22
6.85275e-22
-3.02922e-22
7.2217e-22
-2.81323e-22
7.55934e-22
-2.57562e-22
7.86319e-22
-2.31876e-22
8.13097e-22
-2.04492e-22
8.36073e-22
-1.7564e-22
8.5507e-22
-1.45541e-22
8.69944e-22
-1.14408e-22
8.80596e-22
-8.24286e-23
8.87e-22
-4.97971e-23
8.89146e-22
-1.67486e-23
8.87032e-22
1.64409e-23
8.8066e-22
4.94916e-23
8.70038e-22
8.21293e-23
8.55197e-22
1.14115e-22
8.36231e-22
1.45258e-22
8.13285e-22
1.75367e-22
7.86532e-22
2.04234e-22
7.56173e-22
2.31633e-22
7.2243e-22
2.5734e-22
6.85557e-22
2.8112e-22
6.4584e-22
3.02742e-22
6.03592e-22
3.21969e-22
5.59158e-22
3.38558e-22
5.12918e-22
3.5226e-22
4.65298e-22
3.62818e-22
4.16752e-22
3.69961e-22
3.67779e-22
3.73405e-22
3.18933e-22
3.72838e-22
2.70819e-22
3.67927e-22
2.24058e-22
3.58322e-22
1.79389e-22
3.43574e-22
1.37679e-22
3.23177e-22
9.96645e-23
2.96654e-22
6.62126e-23
2.63293e-22
3.86169e-23
2.22104e-22
1.78351e-23
1.72185e-22
4.72402e-24
1.12406e-22
4.28157e-23
3.91794e-24
-4.66593e-23
1.53741e-23
-1.23543e-22
3.34739e-23
-1.90156e-22
5.75677e-23
-2.46058e-22
8.67226e-23
-2.92296e-22
1.20109e-22
-3.29969e-22
1.569e-22
-3.59954e-22
1.96342e-22
-3.8297e-22
2.37717e-22
-3.99666e-22
2.80359e-22
-4.10586e-22
3.23691e-22
-4.16196e-22
3.67168e-22
-4.16928e-22
4.10285e-22
-4.13155e-22
4.52597e-22
-4.05229e-22
4.93691e-22
-3.93478e-22
5.33187e-22
-3.78203e-22
5.70744e-22
-3.59699e-22
6.06051e-22
-3.38244e-22
6.38828e-22
-3.14112e-22
6.68821e-22
-2.87566e-22
6.95805e-22
-2.58868e-22
7.1958e-22
-2.28273e-22
7.39972e-22
-1.96035e-22
7.56828e-22
-1.62399e-22
7.70028e-22
-1.27608e-22
7.79491e-22
-9.18886e-23
7.85181e-22
-5.54825e-23
7.87087e-22
-1.86484e-23
7.85203e-22
1.8332e-23
7.79533e-22
5.51703e-23
7.70088e-22
9.15826e-23
7.56906e-22
1.27307e-22
7.40065e-22
1.62109e-22
7.19688e-22
1.95756e-22
6.95926e-22
2.28009e-22
6.68954e-22
2.5862e-22
6.38974e-22
2.87338e-22
6.06209e-22
3.13906e-22
5.70913e-22
3.38062e-22
5.33367e-22
3.59543e-22
4.93881e-22
3.78076e-22
4.52797e-22
3.93381e-22
4.10493e-22
4.05163e-22
3.67378e-22
4.1312e-22
3.23908e-22
4.16924e-22
2.80573e-22
4.16229e-22
2.37909e-22
4.10652e-22
1.96536e-22
3.99756e-22
1.571e-22
3.83084e-22
1.20229e-22
3.60124e-22
8.67832e-23
3.30162e-22
5.76788e-23
2.92467e-22
3.35381e-23
2.46298e-22
1.52918e-23
1.9052e-22
3.90717e-24
1.23815e-22
4.67253e-23
3.42387e-24
-5.00912e-23
1.30964e-23
-1.33262e-22
2.86403e-23
-2.05747e-22
4.93097e-23
-2.6678e-22
7.44347e-23
-3.17477e-22
1.03286e-22
-3.58878e-22
1.35143e-22
-3.91867e-22
1.69354e-22
-4.17234e-22
2.05301e-22
-4.35662e-22
2.424e-22
-4.47729e-22
2.80132e-22
-4.53967e-22
3.18008e-22
-4.54839e-22
3.55592e-22
-4.50769e-22
3.92486e-22
-4.42149e-22
4.28322e-22
-4.29337e-22
4.62769e-22
-4.12671e-22
4.95527e-22
-3.92474e-22
5.26321e-22
-3.69053e-22
5.54905e-22
-3.42708e-22
5.81058e-22
-3.13729e-22
6.04583e-22
-2.82401e-22
6.25306e-22
-2.49002e-22
6.43076e-22
-2.13809e-22
6.57765e-22
-1.7709e-22
6.69271e-22
-1.39115e-22
6.77528e-22
-1.00143e-22
6.82494e-22
-6.04449e-23
6.84152e-22
-2.03009e-23
6.82499e-22
1.99927e-23
6.7754e-22
6.01387e-23
6.69291e-22
9.98423e-23
6.5779e-22
1.38821e-22
6.43105e-22
1.76806e-22
6.2534e-22
2.13536e-22
6.04622e-22
2.48743e-22
5.81102e-22
2.82158e-22
5.54954e-22
3.13505e-22
5.26375e-22
3.42506e-22
4.95586e-22
3.68876e-22
4.62834e-22
3.92324e-22
4.28391e-22
4.12549e-22
3.9256e-22
4.29245e-22
3.5567e-22
4.42089e-22
3.18089e-22
4.50742e-22
2.80211e-22
4.54846e-22
2.42481e-22
4.54007e-22
2.05387e-22
4.47798e-22
1.69434e-22
4.3577e-22
1.35193e-22
4.17384e-22
1.03353e-22
3.92022e-22
7.45121e-23
3.59067e-22
4.92827e-23
3.17746e-22
2.85914e-23
2.67039e-22
1.31384e-23
2.05991e-22
3.44809e-24
1.33559e-22
5.01751e-23
2.82337e-24
-5.29349e-23
1.09456e-23
-1.41425e-22
2.39709e-23
-2.18815e-22
4.1341e-23
-2.84194e-22
6.24981e-23
-3.3868e-22
8.68312e-23
-3.83258e-22
1.13763e-22
-4.18845e-22
1.42733e-22
-4.46249e-22
1.73205e-22
-4.66174e-22
2.0469e-22
-4.79251e-22
2.36742e-22
-4.86052e-22
2.68938e-22
-4.87063e-22
3.00898e-22
-4.82754e-22
3.3228e-22
-4.73553e-22
3.6277e-22
-4.59846e-22
3.92083e-22
-4.41999e-22
4.19957e-22
-4.20362e-22
4.46159e-22
-3.95268e-22
4.70479e-22
-3.67039e-22
4.9273e-22
-3.35988e-22
5.12741e-22
-3.02419e-22
5.30366e-22
-2.66633e-22
5.45477e-22
-2.28924e-22
5.5797e-22
-1.89586e-22
5.67758e-22
-1.48904e-22
5.74784e-22
-1.07168e-22
5.7901e-22
-6.46676e-23
5.80419e-22
-2.17043e-23
5.79005e-22
2.14144e-23
5.74773e-22
6.43796e-23
5.67743e-22
1.06882e-22
5.57951e-22
1.48625e-22
5.45455e-22
1.89316e-22
5.30338e-22
2.28666e-22
5.12709e-22
2.66387e-22
4.92695e-22
3.0219e-22
4.70441e-22
3.35777e-22
4.46118e-22
3.66849e-22
4.19915e-22
3.95102e-22
3.92042e-22
4.20221e-22
3.62731e-22
4.41886e-22
3.32243e-22
4.59762e-22
3.00862e-22
4.735e-22
2.68906e-22
4.82731e-22
2.36716e-22
4.87072e-22
2.0467e-22
4.86094e-22
1.73181e-22
4.79332e-22
1.42713e-22
4.66282e-22
1.13761e-22
4.46386e-22
8.68081e-23
4.19029e-22
6.24479e-23
3.83468e-22
4.13472e-23
3.38882e-22
2.39772e-23
2.84441e-22
1.09132e-23
2.19112e-22
2.78529e-24
1.41689e-22
5.29615e-23
2.27704e-24
-5.52194e-23
8.87408e-24
-1.4806e-22
1.94507e-23
-2.29426e-22
3.35874e-23
-2.98365e-22
5.08233e-23
-3.55951e-22
7.06826e-23
-4.03152e-22
9.27023e-23
-4.40899e-22
1.16419e-22
-4.69999e-22
1.41393e-22
-4.91179e-22
1.67222e-22
-5.05108e-22
1.93531e-22
-5.12385e-22
2.19972e-22
-5.13526e-22
2.4623e-22
-5.09031e-22
2.72023e-22
-4.99362e-22
2.97087e-22
-4.84924e-22
3.21184e-22
-4.66109e-22
3.441e-22
-4.43289e-22
3.65643e-22
-4.1682e-22
3.85637e-22
-3.8704e-22
4.03927e-22
-3.54284e-22
4.20375e-22
-3.18872e-22
4.34862e-22
-2.81123e-22
4.47281e-22
-2.41346e-22
4.57546e-22
-1.99853e-22
4.65589e-22
-1.56947e-22
4.71363e-22
-1.1294e-22
4.74836e-22
-6.81368e-23
4.75992e-22
-2.28553e-23
4.74825e-22
2.25885e-23
4.71339e-22
6.78733e-23
4.6555e-22
1.1268e-22
4.5749e-22
1.56694e-22
4.47212e-22
1.99606e-22
4.3478e-22
2.41109e-22
4.20283e-22
2.80898e-22
4.03823e-22
3.18663e-22
3.85524e-22
3.54091e-22
3.65522e-22
3.86868e-22
3.43974e-22
4.16667e-22
3.21054e-22
4.4316e-22
2.96955e-22
4.66005e-22
2.71891e-22
4.84847e-22
2.46101e-22
4.99313e-22
2.19848e-22
5.09011e-22
1.93411e-22
5.13539e-22
1.67108e-22
5.12428e-22
1.41295e-22
5.05179e-22
1.16332e-22
4.91285e-22
9.2619e-23
4.70139e-22
7.06189e-23
4.41061e-22
5.07884e-23
4.03334e-22
3.3527e-23
3.56176e-22
1.93945e-23
2.98594e-22
8.87427e-24
2.29628e-22
2.3166e-24
1.4828e-22
5.52787e-23
1.76602e-24
-5.70006e-23
6.86571e-24
-1.53182e-22
1.50434e-23
-2.37627e-22
2.59929e-23
-3.09338e-22
3.93619e-23
-3.69344e-22
5.47937e-23
-4.18608e-22
7.19169e-23
-4.58046e-22
9.0373e-23
-4.88478e-22
1.09826e-22
-5.10653e-22
1.2996e-22
-5.25261e-22
1.5048e-22
-5.32923e-22
1.71107e-22
-5.34168e-22
1.91601e-22
-5.29538e-22
2.11739e-22
-5.19512e-22
2.31311e-22
-5.04506e-22
2.50129e-22
-4.84935e-22
2.68025e-22
-4.61191e-22
2.84847e-22
-4.33647e-22
3.00459e-22
-4.02657e-22
3.14741e-22
-3.68569e-22
3.27584e-22
-3.31717e-22
3.3889e-22
-2.92432e-22
3.48584e-22
-2.51041e-22
3.56598e-22
-2.07865e-22
3.62878e-22
-1.63227e-22
3.67386e-22
-1.17445e-22
3.70096e-22
-7.08427e-23
3.70992e-22
-2.37464e-23
3.70071e-22
2.35148e-23
3.6734e-22
7.06103e-23
3.62812e-22
1.17215e-22
3.56512e-22
1.63001e-22
3.48479e-22
2.07648e-22
3.38764e-22
2.50832e-22
3.27438e-22
2.92234e-22
3.1458e-22
3.31531e-22
3.00285e-22
3.68398e-22
2.84661e-22
4.02504e-22
2.67829e-22
4.33512e-22
2.49926e-22
4.61077e-22
2.31104e-22
4.84842e-22
2.11531e-22
5.04437e-22
1.91395e-22
5.19468e-22
1.70904e-22
5.29521e-22
1.50288e-22
5.34177e-22
1.2978e-22
5.32959e-22
1.0966e-22
5.25328e-22
9.0221e-23
5.10749e-22
7.1794e-23
4.88591e-22
5.46993e-23
4.58189e-22
3.92686e-23
4.18785e-22
2.59285e-23
3.69522e-22
1.50203e-23
3.09517e-22
6.84635e-24
2.37834e-22
1.75391e-24
1.53357e-22
5.70327e-23
1.25446e-24
-5.82555e-23
4.88876e-24
-1.56831e-22
1.0722e-23
-2.43472e-22
1.85337e-23
-3.17162e-22
2.80771e-23
-3.789e-22
3.90965e-23
-4.29641e-22
5.13303e-23
-4.70294e-22
6.45301e-23
-5.01691e-22
7.84546e-23
-5.2459e-22
9.28646e-23
-5.39682e-22
1.07561e-22
-5.47628e-22
1.22331e-22
-5.48946e-22
1.37017e-22
-5.4423e-22
1.51449e-22
-5.3395e-22
1.65476e-22
-5.18538e-22
1.78961e-22
-4.98423e-22
1.91785e-22
-4.74019e-22
2.0384e-22
-4.45703e-22
2.15027e-22
-4.13846e-22
2.25259e-22
-3.78801e-22
2.34459e-22
-3.40917e-22
2.4256e-22
-3.00532e-22
2.49506e-22
-2.57984e-22
2.55245e-22
-2.13602e-22
2.59742e-22
-1.6772e-22
2.62966e-22
-1.20666e-22
2.64903e-22
-7.27758e-23
2.65541e-22
-2.43804e-23
2.64876e-22
2.41834e-23
2.6291e-22
7.25807e-23
2.59655e-22
1.20474e-22
2.5513e-22
1.67531e-22
2.49366e-22
2.13418e-22
2.42398e-22
2.57806e-22
2.34274e-22
3.00365e-22
2.25053e-22
3.4076e-22
2.14802e-22
3.78657e-22
2.03599e-22
4.13715e-22
1.91532e-22
4.45588e-22
1.78698e-22
4.7392e-22
1.65207e-22
4.98344e-22
1.51178e-22
5.18477e-22
1.36747e-22
5.33911e-22
1.22069e-22
5.44212e-22
1.0731e-22
5.48951e-22
9.26264e-23
5.4766e-22
7.82395e-23
5.39731e-22
6.43468e-23
5.24662e-22
5.11638e-23
5.01795e-22
3.8947e-23
4.70413e-22
2.798e-23
4.29762e-22
1.84782e-23
3.7904e-22
1.06641e-23
3.17326e-22
4.84998e-24
2.43624e-22
1.24452e-24
1.56978e-22
5.82768e-23
7.53875e-25
-5.90165e-23
2.94704e-24
-1.59023e-22
6.46091e-24
-2.46987e-22
1.11597e-23
-3.21862e-22
1.69e-23
-3.84642e-22
2.35259e-23
-4.36269e-22
3.08835e-23
-4.77655e-22
3.88232e-23
-5.09634e-22
4.72142e-23
-5.32985e-22
5.59171e-23
-5.48388e-22
6.47265e-23
-5.5644e-22
7.36064e-23
-5.57828e-22
8.24703e-23
-5.53095e-22
9.11695e-23
-5.4265e-22
9.96031e-23
-5.26972e-22
1.07713e-22
-5.06533e-22
1.15427e-22
-4.81732e-22
1.2268e-22
-4.52955e-22
1.2941e-22
-4.20575e-22
1.35566e-22
-3.84954e-22
1.41099e-22
-3.46448e-22
1.45971e-22
-3.054e-22
1.50144e-22
-2.62153e-22
1.53593e-22
-2.17046e-22
1.56293e-22
-1.70416e-22
1.58229e-22
-1.22598e-22
1.59387e-22
-7.39307e-23
1.59762e-22
-2.47524e-23
1.59352e-22
2.45961e-23
1.5816e-22
7.37751e-23
1.56193e-22
1.22444e-22
1.53462e-22
1.70265e-22
1.49982e-22
2.16901e-22
1.45779e-22
2.62013e-22
1.40881e-22
3.05266e-22
1.35323e-22
3.46321e-22
1.29146e-22
3.84838e-22
1.22397e-22
4.20469e-22
1.1513e-22
4.52861e-22
1.07404e-22
4.81651e-22
9.92872e-23
5.06466e-22
9.08506e-23
5.2692e-22
8.21539e-23
5.42614e-22
7.32964e-23
5.53077e-22
6.4428e-23
5.57827e-22
5.56415e-23
5.56454e-22
4.69624e-23
5.48423e-22
3.85912e-23
5.33041e-22
3.06924e-23
5.09696e-22
2.33915e-23
4.77727e-22
1.67739e-23
4.36381e-22
1.10395e-23
3.84755e-22
6.409e-24
3.21956e-22
2.95047e-24
2.47092e-22
7.7036e-25
1.59128e-22
5.90462e-23
2.61501e-25
-5.92709e-23
1.02125e-24
-1.59775e-22
2.23015e-24
-2.48185e-22
3.83634e-24
-3.23458e-22
5.78757e-24
-3.86585e-22
8.03435e-24
-4.38509e-22
1.05219e-23
-4.80136e-22
1.31928e-23
-5.12299e-22
1.59868e-23
-5.35773e-22
1.88848e-23
-5.51281e-22
2.18979e-23
-5.59449e-22
2.50249e-23
-5.6095e-22
2.80204e-23
-5.56086e-22
3.08794e-23
-5.45504e-22
3.36859e-23
-5.29774e-22
3.64027e-23
-5.09245e-22
3.89881e-23
-4.84313e-22
4.14181e-23
-4.5538e-22
4.36725e-23
-4.22824e-22
4.57335e-23
-3.87011e-22
4.75842e-23
-3.48293e-22
4.92115e-23
-3.07022e-22
5.06049e-23
-2.6354e-22
5.17546e-23
-2.1819e-22
5.2651e-23
-1.71306e-22
5.32893e-23
-1.23232e-22
5.36657e-23
-7.43039e-23
5.37786e-23
-2.48634e-23
5.36273e-23
2.4749e-23
5.32128e-23
7.41907e-23
5.25378e-23
1.2312e-22
5.16063e-23
1.71198e-22
5.0425e-23
2.18083e-22
4.90002e-23
2.63439e-22
4.7344e-23
3.06924e-22
4.54654e-23
3.48201e-22
4.33813e-23
3.86923e-22
4.11061e-23
4.22745e-22
3.86594e-23
4.55308e-22
3.60611e-23
4.8425e-22
3.3337e-23
5.09191e-22
3.05268e-23
5.2973e-22
2.76709e-23
5.4547e-22
2.46834e-23
5.56064e-22
2.15709e-23
5.60941e-22
1.8576e-23
5.59451e-22
1.57036e-23
5.51293e-22
1.29545e-23
5.35792e-22
1.0314e-23
5.12341e-22
7.8327e-24
4.80194e-22
5.65253e-24
4.3855e-22
3.78174e-24
3.86627e-22
2.16414e-24
3.23545e-22
9.47034e-25
2.48269e-22
2.16614e-25
1.59858e-22
5.92614e-23
-2.29644e-25
-5.90409e-23
-8.93539e-25
-1.59086e-22
-1.98741e-24
-2.47069e-22
-3.47204e-24
-3.21952e-22
-5.30015e-24
-3.84737e-22
-7.42583e-24
-4.36365e-22
-9.79883e-24
-4.77746e-22
-1.23609e-23
-5.09722e-22
-1.50547e-23
-5.33066e-22
-1.78593e-23
-5.48464e-22
-2.07849e-23
-5.56511e-22
-2.38312e-23
-5.57893e-22
-2.6753e-23
-5.53154e-22
-2.95455e-23
-5.42701e-22
-3.22941e-23
-5.27016e-22
-3.49596e-23
-5.0657e-22
-3.75021e-23
-4.81762e-22
-3.9896e-23
-4.52978e-22
-4.21223e-23
-4.2059e-22
-4.41626e-23
-3.84963e-22
-4.59994e-23
-3.46448e-22
-4.76191e-23
-3.05394e-22
-4.9011e-23
-2.62141e-22
-5.01662e-23
-2.17027e-22
-5.10764e-23
-1.7039e-22
-5.17365e-23
-1.22567e-22
-5.21423e-23
-7.3895e-23
-5.22911e-23
-2.47123e-23
-5.21823e-23
2.46414e-23
-5.18164e-23
7.38255e-23
-5.11956e-23
1.225e-22
-5.03226e-23
1.70324e-22
-4.92024e-23
2.16962e-22
-4.78428e-23
2.62078e-22
-4.62537e-23
3.05333e-22
-4.44454e-23
3.4639e-22
-4.24315e-23
3.84907e-22
-4.02269e-23
4.20537e-22
-3.78499e-23
4.52928e-22
-3.53212e-23
4.81717e-22
-3.26639e-23
5.06528e-22
-2.99186e-23
5.26979e-22
-2.71235e-23
5.42669e-22
-2.4193e-23
5.53128e-22
-2.11316e-23
5.57871e-22
-1.81819e-23
5.56493e-22
-1.53476e-23
5.48456e-22
-1.26368e-23
5.3307e-22
-1.00313e-23
5.09716e-22
-7.57858e-24
4.77737e-22
-5.43959e-24
4.36393e-22
-3.63362e-24
3.84777e-22
-2.05735e-24
3.21952e-22
-8.8608e-25
2.47084e-22
-2.0203e-25
1.59129e-22
5.90575e-23
-7.35248e-25
-5.82908e-23
-2.82362e-24
-1.56965e-22
-6.22009e-24
-2.43638e-22
-1.07994e-23
-3.1734e-22
-1.64204e-23
-3.79086e-22
-2.2933e-23
-4.29824e-22
-3.01817e-23
-4.70471e-22
-3.80174e-23
-5.01862e-22
-4.63113e-23
-5.24749e-22
-5.49234e-23
-5.39831e-22
-6.36476e-23
-5.47768e-22
-7.24513e-23
-5.49071e-22
-8.12462e-23
-5.44342e-22
-8.98824e-23
-5.34049e-22
-9.82596e-23
-5.18623e-22
-1.0632e-22
-4.98496e-22
-1.13993e-22
-4.74076e-22
-1.21211e-22
-4.45748e-22
-1.27913e-22
-4.13876e-22
-1.34047e-22
-3.78818e-22
-1.39566e-22
-3.40919e-22
-1.44431e-22
-3.00521e-22
-1.48606e-22
-2.57957e-22
-1.52061e-22
-2.13564e-22
-1.54775e-22
-1.6767e-22
-1.5673e-22
-1.20607e-22
-1.57917e-22
-7.27051e-23
-1.58326e-22
-2.43003e-23
-1.57958e-22
2.42746e-23
-1.56811e-22
7.26787e-23
-1.54895e-22
1.20582e-22
-1.52217e-22
1.67645e-22
-1.488e-22
2.13541e-22
-1.44659e-22
2.57934e-22
-1.39829e-22
3.00498e-22
-1.34336e-22
3.40893e-22
-1.28229e-22
3.78793e-22
-1.21548e-22
4.1385e-22
-1.14349e-22
4.45721e-22
-1.06689e-22
4.74048e-22
-9.86383e-23
4.98467e-22
-9.02631e-23
5.18593e-22
-8.16257e-23
5.34019e-22
-7.28206e-23
5.44309e-22
-6.40019e-23
5.49039e-22
-5.52604e-23
5.47738e-22
-4.66223e-23
5.39796e-22
-3.82758e-23
5.24707e-22
-3.04094e-23
5.01838e-22
-2.31682e-23
4.70458e-22
-1.65816e-23
4.29774e-22
-1.08509e-23
3.79032e-22
-6.29652e-24
3.17343e-22
-2.92743e-24
2.43656e-22
-7.90259e-25
1.56971e-22
5.82648e-23
-1.2194e-24
-5.70629e-23
-4.75973e-24
-1.53374e-22
-1.04865e-23
-2.37864e-22
-1.81883e-23
-3.09594e-22
-2.76205e-23
-3.69611e-22
-3.85333e-23
-4.18872e-22
-5.06694e-23
-4.58298e-22
-6.37776e-23
-4.8872e-22
-7.76121e-23
-5.10884e-22
-9.19412e-23
-5.25474e-22
-1.06562e-22
-5.33121e-22
-1.21262e-22
-5.34347e-22
-1.35881e-22
-5.297e-22
-1.50257e-22
-5.19653e-22
-1.6423e-22
-5.0463e-22
-1.77671e-22
-4.85037e-22
-1.90454e-22
-4.61276e-22
-2.02478e-22
-4.33709e-22
-2.13637e-22
-4.02702e-22
-2.23853e-22
-3.6859e-22
-2.33038e-22
-3.31721e-22
-2.41134e-22
-2.92415e-22
-2.48074e-22
-2.51007e-22
-2.53822e-22
-2.0781e-22
-2.58329e-22
-1.63155e-22
-2.61577e-22
-1.17355e-22
-2.63536e-22
-7.07409e-23
-2.64207e-22
-2.36289e-23
-2.63574e-22
2.36441e-23
-2.61655e-22
7.07577e-23
-2.58447e-22
1.17373e-22
-2.53978e-22
1.63173e-22
-2.48266e-22
2.07827e-22
-2.41359e-22
2.51021e-22
-2.33293e-22
2.92427e-22
-2.24138e-22
3.3173e-22
-2.13948e-22
3.68596e-22
-2.02811e-22
4.02701e-22
-1.90805e-22
4.33704e-22
-1.78036e-22
4.61264e-22
-1.64604e-22
4.8502e-22
-1.50635e-22
5.04605e-22
-1.36256e-22
5.19622e-22
-1.21631e-22
5.29663e-22
-1.06916e-22
5.34303e-22
-9.22712e-23
5.33066e-22
-7.79129e-23
5.2542e-22
-6.40672e-23
5.10834e-22
-5.09176e-23
4.88644e-22
-3.86843e-23
4.58205e-22
-2.77728e-23
4.18825e-22
-1.83857e-23
3.69573e-22
-1.05779e-23
3.09501e-22
-4.74929e-24
2.37786e-22
-1.19309e-24
1.53353e-22
5.70686e-23
-1.74856e-24
-5.52909e-23
-6.74283e-24
-1.4832e-22
-1.48218e-23
-2.29726e-22
-2.56701e-23
-2.98688e-22
-3.89467e-23
-3.56281e-22
-5.4284e-23
-4.03485e-22
-7.13212e-23
-4.41216e-22
-8.96998e-23
-4.703e-22
-1.0908e-22
-4.91465e-22
-1.29143e-22
-5.05375e-22
-1.49598e-22
-5.12633e-22
-1.70163e-22
-5.13752e-22
-1.90602e-22
-5.09233e-22
-2.10688e-22
-4.99541e-22
-2.30214e-22
-4.8508e-22
-2.4899e-22
-4.66238e-22
-2.66851e-22
-4.43395e-22
-2.83643e-22
-4.16898e-22
-2.99232e-22
-3.87096e-22
-3.13494e-22
-3.54312e-22
-3.26324e-22
-3.18878e-22
-3.37626e-22
-2.811e-22
-3.47321e-22
-2.41304e-22
-3.55339e-22
-1.99783e-22
-3.61629e-22
-1.56861e-22
-3.66151e-22
-1.12827e-22
-3.68881e-22
-6.80079e-23
-3.69807e-22
-2.27001e-23
-3.6892e-22
2.2757e-23
-3.66227e-22
6.8064e-23
-3.61739e-22
1.12881e-22
-3.55484e-22
1.56916e-22
-3.475e-22
1.99835e-22
-3.3784e-22
2.41355e-22
-3.26568e-22
2.81145e-22
-3.13767e-22
3.1892e-22
-2.99527e-22
3.54343e-22
-2.83961e-22
3.87122e-22
-2.67185e-22
4.16911e-22
-2.4934e-22
4.43401e-22
-2.3057e-22
4.66229e-22
-2.1105e-22
4.85063e-22
-1.90961e-22
4.99509e-22
-1.70516e-22
5.09192e-22
-1.49937e-22
5.13695e-22
-1.2947e-22
5.12575e-22
-1.09383e-22
5.05296e-22
-8.99519e-23
4.91365e-22
-7.15412e-23
4.70211e-22
-5.45417e-23
4.41144e-22
-3.9125e-23
4.03349e-22
-2.57066e-23
3.56127e-22
-1.49071e-23
2.9862e-22
-6.88122e-24
2.29683e-22
-1.82764e-24
1.4826e-22
5.52375e-23
-2.25035e-24
-5.30226e-23
-8.75609e-24
-1.41739e-22
-1.92364e-23
-2.19173e-22
-3.32921e-23
-2.84566e-22
-5.04557e-23
-3.39055e-22
-7.02491e-23
-3.83633e-22
-9.22055e-23
-4.19206e-22
-1.15859e-22
-4.46597e-22
-1.40776e-22
-4.66502e-22
-1.66548e-22
-4.79562e-22
-1.92809e-22
-4.86334e-22
-2.19198e-22
-4.87327e-22
-2.45412e-22
-4.82987e-22
-2.71157e-22
-4.73766e-22
-2.96188e-22
-4.60023e-22
-3.20245e-22
-4.42155e-22
-3.43138e-22
-4.20481e-22
-3.64647e-22
-3.95368e-22
-3.84628e-22
-3.67099e-22
-4.02894e-22
-3.3603e-22
-4.1934e-22
-3.0242e-22
-4.33809e-22
-2.66619e-22
-4.46237e-22
-2.28869e-22
-4.56496e-22
-1.89516e-22
-4.64561e-22
-1.48792e-22
-4.70337e-22
-1.07045e-22
-4.73839e-22
-6.45052e-23
-4.75001e-22
-2.15351e-23
-4.7387e-22
2.16229e-23
-4.70399e-22
6.45928e-23
-4.64659e-22
1.07134e-22
-4.56625e-22
1.48879e-22
-4.46401e-22
1.89602e-22
-4.34001e-22
2.28948e-22
-4.19564e-22
2.66695e-22
-4.0314e-22
3.02485e-22
-3.84902e-22
3.36089e-22
-3.64936e-22
3.67142e-22
-3.43449e-22
3.95402e-22
-3.20563e-22
4.20496e-22
-2.9652e-22
4.42162e-22
-2.71488e-22
4.60007e-22
-2.45747e-22
4.73738e-22
-2.19522e-22
4.8294e-22
-1.93129e-22
4.87271e-22
-1.66841e-22
4.86249e-22
-1.4105e-22
4.79471e-22
-1.16127e-22
4.6641e-22
-9.2451e-23
4.4647e-22
-7.03836e-23
4.19035e-22
-5.05914e-23
3.83513e-22
-3.35319e-23
3.38969e-22
-1.93521e-23
2.84393e-22
-8.73104e-24
2.19001e-22
-2.21316e-24
1.4167e-22
5.30207e-23
-2.80474e-24
-5.01879e-23
-1.08377e-23
-1.33623e-22
-2.37862e-23
-2.06146e-22
-4.10915e-23
-2.67185e-22
-6.21936e-23
-3.17881e-22
-8.64899e-23
-3.59271e-22
-1.13383e-22
-3.92251e-22
-1.42317e-22
-4.17607e-22
-1.72752e-22
-4.36013e-22
-2.04205e-22
-4.48061e-22
-2.36216e-22
-4.54278e-22
-2.68379e-22
-4.55125e-22
-3.00302e-22
-4.51026e-22
-3.31657e-22
-4.42378e-22
-3.62112e-22
-4.29536e-22
-3.91401e-22
-4.12841e-22
-4.19246e-22
-3.92609e-22
-4.45436e-22
-3.69159e-22
-4.69732e-22
-3.4278e-22
-4.91977e-22
-3.13773e-22
-5.1197e-22
-2.82409e-22
-5.29598e-22
-2.48983e-22
-5.447e-22
-2.13754e-22
-5.57201e-22
-1.77011e-22
-5.66985e-22
-1.38998e-22
-5.74026e-22
-1.00005e-22
-5.78255e-22
-6.02697e-23
-5.79687e-22
-2.01077e-23
-5.78283e-22
2.02217e-23
-5.74082e-22
6.03827e-23
-5.67068e-22
1.0012e-22
-5.57312e-22
1.39108e-22
-5.44838e-22
1.77123e-22
-5.29762e-22
2.13854e-22
-5.12161e-22
2.49082e-22
-4.9219e-22
2.82491e-22
-4.69968e-22
3.13852e-22
-4.45688e-22
3.42835e-22
-4.19514e-22
3.6921e-22
-3.9168e-22
3.92633e-22
-3.62399e-22
4.12857e-22
-3.31947e-22
4.29524e-22
-3.00595e-22
4.4236e-22
-2.68668e-22
4.50977e-22
-2.36493e-22
4.55063e-22
-2.04473e-22
4.54193e-22
-1.73012e-22
4.4797e-22
-1.42526e-22
4.35869e-22
-1.13568e-22
4.17475e-22
-8.67347e-23
3.92137e-22
-6.24032e-23
3.59094e-22
-4.11094e-23
3.17641e-22
-2.38632e-23
2.67057e-22
-1.10166e-23
2.06068e-22
-2.92744e-24
1.33536e-22
5.00898e-23
-3.37029e-24
-4.6793e-23
-1.29992e-23
-1.23903e-22
-2.84818e-23
-1.90576e-22
-4.91319e-23
-2.46451e-22
-7.42394e-23
-2.92695e-22
-1.03072e-22
-3.30363e-22
-1.34919e-22
-3.60333e-22
-1.69125e-22
-3.83335e-22
-2.05051e-22
-4.00026e-22
-2.42137e-22
-4.10918e-22
-2.79845e-22
-4.16518e-22
-3.17708e-22
-4.17212e-22
-3.55265e-22
-4.13427e-22
-3.92145e-22
-4.05457e-22
-4.27953e-22
-3.93693e-22
-4.62396e-22
-3.78365e-22
-4.95123e-22
-3.59855e-22
-5.25917e-22
-3.3834e-22
-5.54471e-22
-3.14205e-22
-5.80632e-22
-2.87591e-22
-6.04129e-22
-2.58898e-22
-6.24867e-22
-2.28231e-22
-6.4261e-22
-1.96002e-22
-6.57322e-22
-1.6229e-22
-6.68803e-22
-1.27513e-22
-6.77087e-22
-9.17148e-23
-6.82029e-22
-5.53283e-23
-6.83723e-22
-1.84119e-23
-6.82047e-22
1.85409e-23
-6.77129e-22
5.54598e-23
-6.6886e-22
9.18382e-23
-6.57408e-22
1.27642e-22
-6.4271e-22
1.62403e-22
-6.25001e-22
1.96123e-22
-6.04273e-22
2.28327e-22
-5.80809e-22
2.59001e-22
-5.54649e-22
2.87661e-22
-5.26125e-22
3.14284e-22
-4.95327e-22
3.38381e-22
-4.62627e-22
3.59904e-22
-4.28173e-22
3.78372e-22
-3.92389e-22
3.93708e-22
-3.55488e-22
4.05424e-22
-3.17947e-22
4.13401e-22
-2.80066e-22
4.17144e-22
-2.42365e-22
4.16449e-22
-2.05239e-22
4.10797e-22
-1.69344e-22
3.9993e-22
-1.35126e-22
3.83188e-22
-1.03188e-22
3.60131e-22
-7.43337e-23
3.30193e-22
-4.93721e-23
2.92581e-22
-2.86325e-23
2.4626e-22
-1.29675e-23
1.90347e-22
-3.28189e-24
1.2378e-22
4.68047e-23
-3.93877e-24
-4.28193e-23
-1.52698e-23
-1.12475e-22
-3.33786e-23
-1.7237e-22
-5.74694e-23
-2.22267e-22
-8.66437e-23
-2.6343e-22
-1.20058e-22
-2.96862e-22
-1.5688e-22
-3.23428e-22
-1.96326e-22
-3.43811e-22
-2.37709e-22
-3.5857e-22
-2.80356e-22
-3.68204e-22
-3.23695e-22
-3.73117e-22
-3.67155e-22
-3.73693e-22
-4.10279e-22
-3.70249e-22
-4.52574e-22
-3.63114e-22
-4.93672e-22
-3.52552e-22
-5.33143e-22
-3.38854e-22
-5.70711e-22
-3.22253e-22
-6.0599e-22
-3.03027e-22
-6.38782e-22