/*--------------------------------*- C++ -*----------------------------------*\
| =========                 |                                                 |
| \\      /  F ield         | OpenFOAM: The Open Source CFD Toolbox           |
|  \\    /   O peration     | Version:  5.0                                   |
|   \\  /    A nd           | Web:      www.OpenFOAM.org                      |
|    \\/     M anipulation  |                                                 |
\*---------------------------------------------------------------------------*/
FoamFile
{
    version     2.0;
    format      ascii;
    class       surfaceScalarField;
    location    "470";
    object      phi;
}
// * * * * * * * * * * * * * * * * * * * * * * * * * * * * * * * * * * * * * //

dimensions      [0 3 -1 0 0 0 0];

internalField   nonuniform List<scalar> 
3052
(
1.35718e-25
-1.56809e-25
4.9037e-25
-3.54986e-25
1.02875e-24
-5.3869e-25
1.70229e-24
-6.7383e-25
2.48743e-24
-7.85435e-25
3.36639e-24
-8.79247e-25
4.31864e-24
-9.52528e-25
5.32751e-24
-1.00913e-24
6.37813e-24
-1.05087e-24
7.45602e-24
-1.07812e-24
8.54769e-24
-1.09189e-24
9.6409e-24
-1.09341e-24
1.07242e-23
-1.08352e-24
1.17869e-23
-1.06283e-24
1.28189e-23
-1.03222e-24
1.38113e-23
-9.9245e-25
1.47553e-23
-9.44196e-25
1.56434e-23
-8.88188e-25
1.64684e-23
-8.25129e-25
1.7224e-23
-7.55743e-25
1.79047e-23
-6.80694e-25
1.85053e-23
-6.00671e-25
1.90216e-23
-5.16416e-25
1.94483e-23
-4.26678e-25
1.97851e-23
-3.36902e-25
2.00318e-23
-2.46683e-25
2.01816e-23
-1.49812e-25
2.02315e-23
-4.99063e-26
2.01829e-23
4.86059e-26
2.00345e-23
1.48501e-25
1.97891e-23
2.4547e-25
1.94534e-23
3.35731e-25
1.9028e-23
4.25528e-25
1.85127e-23
5.15322e-25
1.79132e-23
5.99617e-25
1.72337e-23
6.79678e-25
1.64789e-23
7.54864e-25
1.56548e-23
8.24289e-25
1.47675e-23
8.87466e-25
1.3824e-23
9.43582e-25
1.28323e-23
9.91929e-25
1.18007e-23
1.03177e-24
1.07384e-23
1.06252e-24
9.65528e-24
1.08328e-24
8.56213e-24
1.09335e-24
7.47047e-24
1.09188e-24
6.39266e-24
1.07803e-24
5.34206e-24
1.05084e-24
4.33293e-24
1.00938e-24
3.38084e-24
9.52345e-25
2.50282e-24
8.78278e-25
1.71762e-24
7.85472e-25
1.0454e-24
6.72482e-25
5.10916e-25
5.34776e-25
1.52919e-25
3.58234e-25
1.52952e-25
1.29616e-25
-2.86769e-25
4.53033e-25
-6.79399e-25
9.32932e-25
-1.01954e-24
1.55015e-24
-1.29198e-24
2.27834e-24
-1.51453e-24
3.09306e-24
-1.69486e-24
3.97806e-24
-1.83838e-24
4.9173e-24
-1.94918e-24
5.89529e-24
-2.02962e-24
6.89866e-24
-2.08221e-24
7.91519e-24
-2.10909e-24
8.93315e-24
-2.11201e-24
9.94167e-24
-2.09262e-24
1.09309e-23
-2.05256e-24
1.18915e-23
-1.99336e-24
1.2815e-23
-1.9164e-24
1.36935e-23
-1.82309e-24
1.45198e-23
-1.71484e-24
1.52873e-23
-1.59295e-24
1.599e-23
-1.45875e-24
1.66226e-23
-1.31356e-24
1.71804e-23
-1.15869e-24
1.76593e-23
-9.95459e-25
1.80576e-23
-8.25138e-25
1.83732e-23
-6.52559e-25
1.8602e-23
-4.75471e-25
1.87417e-23
-2.8958e-25
1.87894e-23
-9.75127e-26
1.8743e-23
9.5159e-26
1.86043e-23
2.87304e-25
1.83767e-23
4.73331e-25
1.80621e-23
6.50486e-25
1.76649e-23
8.23088e-25
1.7187e-23
9.93491e-25
1.66301e-23
1.15686e-24
1.59984e-23
1.31183e-24
1.52965e-23
1.45719e-24
1.45297e-23
1.59153e-24
1.3704e-23
1.71361e-24
1.28261e-23
1.82205e-24
1.1903e-23
1.91556e-24
1.09427e-23
1.99272e-24
9.95365e-24
2.05217e-24
8.94518e-24
2.09241e-24
7.92723e-24
2.11198e-24
6.91057e-24
2.10926e-24
5.90677e-24
2.08257e-24
4.92834e-24
2.03004e-24
3.9889e-24
1.94963e-24
3.10318e-24
1.83889e-24
2.28714e-24
1.69517e-24
1.55891e-24
1.51455e-24
9.40126e-25
1.29214e-24
4.55472e-25
1.02019e-24
1.29568e-25
6.84961e-25
2.82562e-25
1.01153e-25
-3.88247e-25
3.86685e-25
-9.65812e-25
8.22998e-25
-1.45672e-24
1.38688e-24
-1.8567e-24
2.05422e-24
-2.18269e-24
2.80619e-24
-2.44763e-24
3.62464e-24
-2.65761e-24
4.49367e-24
-2.81894e-24
5.39947e-24
-2.93613e-24
6.32928e-24
-3.01267e-24
7.27118e-24
-3.05159e-24
8.21429e-24
-3.0557e-24
9.14873e-24
-3.02759e-24
1.00651e-23
-2.96947e-24
1.09549e-23
-2.88357e-24
1.18101e-23
-2.77204e-24
1.26236e-23
-2.63692e-24
1.33886e-23
-2.48014e-24
1.4099e-23
-2.3037e-24
1.47495e-23
-2.10949e-24
1.53352e-23
-1.89944e-24
1.58517e-23
-1.67544e-24
1.62957e-23
-1.43954e-24
1.66646e-23
-1.19409e-24
1.6954e-23
-9.42052e-25
1.71612e-23
-6.82651e-25
1.72861e-23
-4.14504e-25
1.73285e-23
-1.39832e-25
1.72871e-23
1.36681e-25
1.71631e-23
4.11408e-25
1.69569e-23
6.79668e-25
1.66684e-23
9.39183e-25
1.63004e-23
1.19133e-24
1.58573e-23
1.43688e-24
1.53416e-23
1.67292e-24
1.47567e-23
1.8971e-24
1.41069e-23
2.10737e-24
1.3397e-23
2.3018e-24
1.26326e-23
2.4785e-24
1.18196e-23
2.63555e-24
1.09647e-23
2.77095e-24
1.00752e-23
2.88277e-24
9.159e-24
2.96896e-24
8.22461e-24
3.0274e-24
7.28139e-24
3.05584e-24
6.33932e-24
3.05199e-24
5.40928e-24
3.01329e-24
4.50307e-24
2.93697e-24
3.63343e-24
2.82e-24
2.81432e-24
2.65877e-24
2.06164e-24
2.44862e-24
1.39274e-24
2.18422e-24
8.275e-25
1.85811e-24
3.89324e-25
1.45934e-24
1.04826e-25
9.6995e-25
3.87426e-25
8.83504e-26
-4.76838e-25
3.37729e-25
-1.216e-24
7.26993e-25
-1.84674e-24
1.23546e-24
-2.36589e-24
1.84277e-24
-2.79071e-24
2.52898e-24
-3.13453e-24
3.27825e-24
-3.40755e-24
4.07574e-24
-3.61707e-24
4.90789e-24
-3.7689e-24
5.76262e-24
-3.86797e-24
6.62893e-24
-3.91845e-24
7.49664e-24
-3.92391e-24
8.3563e-24
-3.88772e-24
9.19936e-24
-3.81296e-24
1.00179e-23
-3.7025e-24
1.08046e-23
-3.55909e-24
1.15527e-23
-3.38537e-24
1.22562e-23
-3.18391e-24
1.29095e-23
-2.95723e-24
1.35076e-23
-2.70779e-24
1.4046e-23
-2.43806e-24
1.4521e-23
-2.15053e-24
1.4929e-23
-1.84771e-24
1.52671e-23
-1.53222e-24
1.55315e-23
-1.20652e-24
1.57203e-23
-8.71469e-25
1.58335e-23
-5.27668e-25
1.58715e-23
-1.77801e-25
1.58343e-23
1.74019e-25
1.57218e-23
5.23961e-25
1.55338e-23
8.67871e-25
1.52701e-23
1.20304e-24
1.49328e-23
1.52885e-24
1.45254e-23
1.84452e-24
1.40511e-23
2.14752e-24
1.35132e-23
2.43528e-24
1.29157e-23
2.70524e-24
1.22629e-23
2.95497e-24
1.15598e-23
3.18196e-24
1.08121e-23
3.38374e-24
1.00257e-23
3.55782e-24
9.20733e-24
3.70161e-24
8.36437e-24
3.81243e-24
7.50473e-24
3.88758e-24
6.63699e-24
3.92415e-24
5.77052e-24
3.91904e-24
4.91549e-24
3.86895e-24
4.08286e-24
3.77023e-24
3.2849e-24
3.61863e-24
2.53506e-24
3.40929e-24
1.84773e-24
3.13663e-24
1.23949e-24
2.79315e-24
7.29855e-25
2.36848e-24
3.39377e-25
1.85031e-24
8.99437e-26
1.22013e-24
4.77404e-25
7.74014e-26
-5.54515e-25
2.95278e-25
-1.43454e-24
6.41375e-25
-2.19349e-24
1.09563e-24
-2.82077e-24
1.64112e-24
-3.33681e-24
2.26097e-24
-3.75497e-24
2.9399e-24
-4.08706e-24
3.66403e-24
-4.34175e-24
4.42089e-24
-4.52629e-24
5.19917e-24
-4.64675e-24
5.98841e-24
-4.70816e-24
6.77921e-24
-4.71515e-24
7.56294e-24
-4.67185e-24
8.33161e-24
-4.582e-24
9.0779e-24
-4.44913e-24
9.79513e-24
-4.27662e-24
1.04772e-23
-4.06767e-24
1.11184e-23
-3.8254e-24
1.17138e-23
-3.55283e-24
1.22588e-23
-3.25298e-24
1.27494e-23
-2.92876e-24
1.31819e-23
-2.58317e-24
1.35532e-23
-2.21908e-24
1.38603e-23
-1.83943e-24
1.41007e-23
-1.44687e-24
1.42726e-23
-1.04339e-24
1.43758e-23
-6.30843e-25
1.44104e-23
-2.12346e-25
1.43763e-23
2.08164e-25
1.42737e-23
6.26716e-25
1.41023e-23
1.03936e-24
1.38625e-23
1.44298e-24
1.35559e-23
1.83569e-24
1.31851e-23
2.21553e-24
1.2753e-23
2.57982e-24
1.22629e-23
2.92567e-24
1.17183e-23
3.25017e-24
1.11233e-23
3.55034e-24
1.04823e-23
3.82325e-24
9.80053e-24
4.0659e-24
9.08349e-24
4.27525e-24
8.33736e-24
4.44817e-24
7.56876e-24
4.58148e-24
6.78504e-24
4.67178e-24
5.99415e-24
4.71554e-24
5.20472e-24
4.70899e-24
4.4262e-24
4.648e-24
3.66906e-24
4.52794e-24
2.94449e-24
4.34378e-24
2.2648e-24
4.08958e-24
1.64424e-24
3.75779e-24
1.09825e-24
3.33972e-24
6.42694e-25
2.82456e-24
2.96308e-25
2.19758e-24
7.7247e-26
1.43948e-24
5.54678e-25
6.64942e-26
-6.21156e-25
2.58063e-25
-1.62671e-24
5.61738e-25
-2.49773e-24
9.6378e-25
-3.22334e-24
1.44852e-24
-3.82206e-24
2.0016e-24
-4.30855e-24
2.60921e-24
-4.69514e-24
3.25876e-24
-4.99178e-24
3.93885e-24
-5.20683e-24
4.63898e-24
-5.3473e-24
5.34961e-24
-5.41919e-24
6.06205e-24
-5.42797e-24
6.76834e-24
-5.37848e-24
7.46117e-24
-5.27514e-24
8.13391e-24
-5.12215e-24
8.78045e-24
-4.92342e-24
9.39524e-24
-4.68269e-24
9.97322e-24
-4.40357e-24
1.05098e-23
-4.0896e-24
1.10009e-23
-3.74421e-24
1.14428e-23
-3.3708e-24
1.18323e-23
-2.97273e-24
1.21664e-23
-2.55329e-24
1.24427e-23
-2.11574e-24
1.2659e-23
-1.66315e-24
1.28138e-23
-1.19826e-24
1.29069e-23
-7.23873e-25
1.2938e-23
-2.43442e-25
1.29072e-23
2.39049e-25
1.28145e-23
7.19528e-25
1.266e-23
1.19401e-24
1.24441e-23
1.65903e-24
1.21681e-23
2.11179e-24
1.18343e-23
2.54954e-24
1.14451e-23
2.96921e-24
1.10035e-23
3.36755e-24
1.05126e-23
3.74127e-24
9.97626e-24
4.087e-24
9.39848e-24
4.40134e-24
8.78385e-24
4.68086e-24
8.13743e-24
4.92202e-24
7.46477e-24
5.1212e-24
6.77197e-24
5.27467e-24
6.06568e-24
5.37848e-24
5.35316e-24
5.42849e-24
4.6424e-24
5.4202e-24
3.94212e-24
5.34875e-24
3.2617e-24
5.20884e-24
2.61172e-24
4.99426e-24
2.00391e-24
4.69789e-24
1.45041e-24
4.3118e-24
9.64703e-25
3.82593e-24
5.6248e-25
3.22736e-24
2.58619e-25
2.50167e-24
6.76287e-26
1.63111e-24
6.22332e-25
5.7716e-26
-6.7909e-25
2.23433e-25
-1.79288e-24
4.87517e-25
-2.76228e-24
8.38487e-25
-3.57476e-24
1.26339e-24
-4.24739e-24
1.74973e-24
-4.7953e-24
2.28555e-24
-5.23137e-24
2.8597e-24
-5.56632e-24
3.46181e-24
-5.80931e-24
4.08239e-24
-5.96824e-24
4.71289e-24
-6.05002e-24
5.34538e-24
-6.06077e-24
5.97264e-24
-6.00602e-24
6.58814e-24
-5.8909e-24
7.18587e-24
-5.72012e-24
7.76036e-24
-5.49812e-24
8.30663e-24
-5.22914e-24
8.82016e-24
-4.91727e-24
9.29687e-24
-4.56645e-24
9.73309e-24
-4.18055e-24
1.01255e-23
-3.76334e-24
1.04713e-23
-3.31857e-24
1.07679e-23
-2.8499e-24
1.1013e-23
-2.36091e-24
1.1205e-23
-1.85511e-24
1.13425e-23
-1.33584e-24
1.14253e-23
-8.06548e-25
1.14529e-23
-2.71034e-25
1.14254e-23
2.66601e-25
1.13429e-23
8.02168e-25
1.12054e-23
1.33155e-24
1.10136e-23
1.85095e-24
1.07687e-23
2.35692e-24
1.04722e-23
2.84611e-24
1.01266e-23
3.31503e-24
9.73429e-24
3.76008e-24
9.29819e-24
4.17759e-24
8.82158e-24
4.56385e-24
8.30813e-24
4.91505e-24
7.76194e-24
5.22733e-24
7.1875e-24
5.49675e-24
6.58981e-24
5.71922e-24
5.97432e-24
5.89049e-24
5.34703e-24
6.00612e-24
4.71452e-24
6.06137e-24
4.08394e-24
6.05116e-24
3.46317e-24
5.96992e-24
2.86095e-24
5.81147e-24
2.28669e-24
5.56895e-24
1.75043e-24
5.23459e-24
1.26375e-24
4.79892e-24
8.38938e-25
4.25116e-24
4.87738e-25
3.57889e-24
2.23269e-25
2.7669e-24
5.77348e-26
1.79676e-24
6.80085e-25
4.94082e-26
-7.28576e-25
1.9063e-25
-1.93453e-24
4.16923e-25
-2.98896e-24
7.1822e-25
-3.87642e-24
1.08424e-24
-4.61375e-24
1.50439e-24
-5.21579e-24
1.96836e-24
-5.69567e-24
2.46645e-24
-6.06473e-24
2.98963e-24
-6.33279e-24
3.52953e-24
-6.50843e-24
4.07854e-24
-6.59929e-24
4.62961e-24
-6.61209e-24
5.17638e-24
-6.55303e-24
5.71308e-24
-6.4278e-24
6.23436e-24
-6.2416e-24
6.73543e-24
-5.99935e-24
7.21189e-24
-5.70576e-24
7.65978e-24
-5.36529e-24
8.07552e-24
-4.9823e-24
8.45589e-24
-4.56101e-24
8.79804e-24
-4.10556e-24
9.09942e-24
-3.62001e-24
9.35785e-24
-3.10836e-24
9.57147e-24
-2.57454e-24
9.7388e-24
-2.02244e-24
9.85883e-24
-1.45586e-24
9.93101e-24
-8.78698e-25
9.95509e-24
-2.95064e-25
9.931e-24
2.9076e-25
9.85881e-24
8.74436e-25
9.73877e-24
1.45168e-24
9.57144e-24
2.01839e-24
9.35783e-24
2.57067e-24
9.0994e-24
3.10468e-24
8.79802e-24
3.61657e-24
8.45588e-24
4.10239e-24
8.07551e-24
4.55815e-24
7.65977e-24
4.97979e-24
7.21189e-24
5.36316e-24
6.73543e-24
5.70403e-24
6.23436e-24
5.99807e-24
5.71307e-24
6.24077e-24
5.17638e-24
6.42746e-24
4.62959e-24
6.5532e-24
4.07849e-24
6.61279e-24
3.52946e-24
6.60051e-24
2.98955e-24
6.51016e-24
2.4663e-24
6.33506e-24
1.96807e-24
6.06754e-24
1.50417e-24
5.69885e-24
1.08405e-24
5.2194e-24
7.17715e-25
4.61785e-24
4.16485e-25
3.88056e-24
1.90597e-25
2.99281e-24
4.95806e-26
1.9383e-24
7.29683e-25
4.11569e-26
-7.69903e-25
1.59385e-25
-2.05304e-24
3.48951e-25
-3.17883e-24
6.02001e-25
-4.12976e-24
9.10124e-25
-4.92215e-24
1.26456e-24
-5.5705e-24
1.65677e-24
-6.08813e-24
2.07853e-24
-6.48673e-24
2.5221e-24
-6.7766e-24
2.98034e-24
-6.9669e-24
3.44673e-24
-7.06589e-24
3.91516e-24
-7.08073e-24
4.38013e-24
-7.01817e-24
4.83665e-24
-6.88449e-24
5.28018e-24
-6.68527e-24
5.70655e-24
-6.42585e-24
6.11199e-24
-6.11132e-24
6.4931e-24
-5.74651e-24
6.84684e-24
-5.33612e-24
7.17045e-24
-4.88469e-24
7.46149e-24
-4.39666e-24
7.71783e-24
-3.87638e-24
7.9376e-24
-3.32816e-24
8.11927e-24
-2.75622e-24
8.26161e-24
-2.16477e-24
8.36375e-24
-1.55798e-24
8.42518e-24
-9.40095e-25
8.44563e-24
-3.1547e-25
8.42502e-24
3.11424e-25
8.36344e-24
9.3609e-25
8.26115e-24
1.55405e-24
8.11868e-24
2.16096e-24
7.93688e-24
2.75257e-24
7.71698e-24
3.3247e-24
7.46054e-24
3.87315e-24
7.16939e-24
4.39369e-24
6.84568e-24
4.88202e-24
6.49186e-24
5.33377e-24
6.11067e-24
5.74453e-24
5.70518e-24
6.10972e-24
5.27878e-24
6.42468e-24
4.83523e-24
6.68454e-24
4.37869e-24
6.88423e-24
3.91373e-24
7.01839e-24
3.44533e-24
7.08145e-24
2.97897e-24
7.06712e-24
2.52075e-24
6.96866e-24
2.07724e-24
6.77884e-24
1.65562e-24
6.48944e-24
1.26344e-24
6.09133e-24
9.09052e-25
5.57406e-24
6.01323e-25
4.92586e-24
3.48423e-25
4.13363e-24
1.59077e-25
3.1828e-24
4.10021e-26
2.05635e-24
7.70696e-25
3.33308e-26
-8.03254e-25
1.29215e-25
-2.14919e-24
2.83133e-25
-3.33298e-24
4.88984e-25
-4.33583e-24
7.40035e-25
-5.17341e-24
1.02932e-24
-5.85998e-24
1.34996e-24
-6.40895e-24
1.69522e-24
-6.83218e-24
2.05875e-24
-7.1403e-24
2.43465e-24
-7.34296e-24
2.81751e-24
-7.4489e-24
3.20224e-24
-7.4656e-24
3.58426e-24
-7.40032e-24
3.95948e-24
-7.25984e-24
4.32408e-24
-7.04998e-24
4.67461e-24
-6.77647e-24
5.00794e-24
-6.44473e-24
5.32128e-24
-6.05992e-24
5.61208e-24
-5.62699e-24
5.8781e-24
-5.15075e-24
6.11732e-24
-4.63591e-24
6.32799e-24
-4.08708e-24
6.5086e-24
-3.50878e-24
6.65789e-24
-2.90551e-24
6.77487e-24
-2.28174e-24
6.85882e-24
-1.64192e-24
6.9093e-24
-9.90543e-25
6.92607e-24
-3.32193e-25
6.90903e-24
3.28508e-25
6.85828e-24
9.86901e-25
6.77406e-24
1.63835e-24
6.65682e-24
2.27828e-24
6.50729e-24
2.90219e-24
6.32645e-24
3.50564e-24
6.11556e-24
4.08414e-24
5.87614e-24
4.63322e-24
5.60995e-24
5.14833e-24
5.31899e-24
5.62487e-24
5.00553e-24
6.05813e-24
4.6721e-24
6.44331e-24
4.32151e-24
6.77543e-24
3.95686e-24
7.04935e-24
3.58164e-24
7.25963e-24
3.19965e-24
7.40056e-24
2.81496e-24
7.46632e-24
2.43219e-24
7.45009e-24
2.05644e-24
7.34461e-24
1.69307e-24
7.14242e-24
1.34798e-24
6.83475e-24
1.02763e-24
6.41189e-24
7.38685e-25
5.86322e-24
4.87813e-25
5.17694e-24
2.82358e-25
4.3394e-24
1.28834e-25
3.33616e-24
3.34313e-26
2.15217e-24
8.04138e-25
2.57328e-26
-8.29107e-25
9.98887e-26
-2.22347e-24
2.18968e-25
-3.4522e-24
3.78417e-25
-4.49541e-24
5.73124e-25
-5.36824e-24
7.97801e-25
-6.08478e-24
1.0471e-24
-6.65836e-24
1.31582e-24
-7.10101e-24
1.59901e-24
-7.4236e-24
1.89204e-24
-7.6361e-24
2.19066e-24
-7.74761e-24
2.49078e-24
-7.76582e-24
2.78898e-24
-7.69859e-24
3.08195e-24
-7.55288e-24
3.36667e-24
-7.33477e-24
3.6404e-24
-7.05026e-24
3.90071e-24
-6.70509e-24
4.1454e-24
-6.30464e-24
4.37248e-24
-5.8541e-24
4.58019e-24
-5.35849e-24
4.76696e-24
-4.8227e-24
4.93142e-24
-4.25155e-24
5.0724e-24
-3.64976e-24
5.18893e-24
-3.02203e-24
5.28024e-24
-2.37303e-24
5.34577e-24
-1.70742e-24
5.38515e-24
-1.02989e-24
5.39816e-24
-3.45172e-25
5.38476e-24
3.41955e-25
5.34501e-24
1.0267e-24
5.27912e-24
1.70429e-24
5.18746e-24
2.37e-24
5.0706e-24
3.01913e-24
4.92929e-24
3.64701e-24
4.76454e-24
4.24898e-24
4.5775e-24
4.82035e-24
4.36955e-24
5.35637e-24
4.14226e-24
5.85226e-24
3.89741e-24
6.30309e-24
3.63696e-24
6.70386e-24
3.36314e-24
7.04937e-24
3.07837e-24
7.33424e-24
2.78539e-24
7.55273e-24
2.48724e-24
7.69884e-24
2.18722e-24
7.76647e-24
1.88876e-24
7.74869e-24
1.59591e-24
7.6376e-24
1.31296e-24
7.42551e-24
1.04458e-24
7.10327e-24
7.95651e-25
6.66097e-24
5.7131e-25
6.0877e-24
3.77101e-25
5.37128e-24
2.18092e-25
4.49843e-24
9.95053e-26
3.45527e-24
2.55959e-26
2.22593e-24
8.29737e-25
1.83255e-26
-8.47398e-25
7.11408e-26
-2.27637e-24
1.56016e-25
-3.53715e-24
2.69711e-25
-4.60917e-24
4.08648e-25
-5.50724e-24
5.69084e-25
-6.24527e-24
7.47241e-25
-6.83656e-24
9.39445e-25
-7.29326e-24
1.14213e-24
-7.62633e-24
1.35187e-24
-7.84588e-24
1.56576e-24
-7.96154e-24
1.7807e-24
-7.98079e-24
1.99436e-24
-7.9123e-24
2.20434e-24
-7.76288e-24
2.4084e-24
-7.53886e-24
2.60457e-24
-7.24645e-24
2.79111e-24
-6.89165e-24
2.96645e-24
-6.47999e-24
3.12917e-24
-6.01682e-24
3.278e-24
-5.50731e-24
3.4118e-24
-4.95651e-24
3.52962e-24
-4.36935e-24
3.6306e-24
-3.75073e-24
3.71405e-24
-3.10547e-24
3.77943e-24
-2.43839e-24
3.82632e-24
-1.75429e-24
3.85446e-24
-1.05801e-24
3.86371e-24
-3.54386e-25
3.85401e-24
3.51691e-25
3.82541e-24
1.05534e-24
3.77806e-24
1.75168e-24
3.71226e-24
2.43586e-24
3.6284e-24
3.10304e-24
3.52703e-24
3.74843e-24
3.40886e-24
4.36721e-24
3.27472e-24
4.95454e-24
3.1256e-24
5.50556e-24
2.96263e-24
6.01529e-24
2.78708e-24
6.47871e-24
2.60038e-24
6.89063e-24
2.4041e-24
7.24572e-24
2.19999e-24
7.53843e-24
1.99001e-24
7.76278e-24
1.77642e-24
7.91252e-24
1.56161e-24
7.98135e-24
1.34791e-24
7.96247e-24
1.13845e-24
7.84713e-24
9.36113e-25
7.62792e-24
7.4426e-25
7.2952e-24
5.66523e-25
6.83878e-24
4.06658e-25
6.24764e-24
2.68242e-25
5.50977e-24
1.55059e-25
4.6118e-24
7.05541e-26
3.53946e-24
1.82638e-26
2.27853e-24
8.48004e-25
1.10127e-26
-8.5848e-25
4.28355e-26
-2.30816e-24
9.38979e-26
-3.58819e-24
1.62266e-25
-4.67752e-24
2.45816e-25
-5.59077e-24
3.42299e-25
-6.34173e-24
4.49444e-25
-6.94369e-24
5.65044e-25
-7.40884e-24
6.87213e-25
-7.74848e-24
8.13909e-25
-7.97256e-24
9.42122e-25
-8.08974e-24
1.07135e-24
-8.11e-24
1.20033e-24
-8.04126e-24
1.32691e-24
-7.88945e-24
1.44961e-24
-7.66154e-24
1.56759e-24
-7.36441e-24
1.67981e-24
-7.00385e-24
1.7853e-24
-6.58546e-24
1.88319e-24
-6.11469e-24
1.97272e-24
-5.59681e-24
2.05319e-24
-5.03695e-24
2.12403e-24
-4.44016e-24
2.18472e-24
-3.81139e-24
2.23485e-24
-3.15558e-24
2.2741e-24
-2.47761e-24
2.30223e-24
-1.78239e-24
2.31906e-24
-1.07481e-24
2.32451e-24
-3.59802e-25
2.31854e-24
3.57689e-25
2.30119e-24
1.07272e-24
2.27257e-24
1.78034e-24
2.23283e-24
2.47562e-24
2.18222e-24
3.15368e-24
2.12108e-24
3.80959e-24
2.04984e-24
4.43848e-24
1.96899e-24
5.03542e-24
1.87914e-24
5.59544e-24
1.78096e-24
6.11349e-24
1.67524e-24
6.58446e-24
1.56284e-24
7.00305e-24
1.44474e-24
7.36384e-24
1.32198e-24
7.66121e-24
1.19541e-24
7.88937e-24
1.06651e-24
8.04144e-24
9.37433e-25
8.11044e-24
8.09481e-25
8.09043e-24
6.83087e-25
7.97354e-24
5.61272e-25
7.74974e-24
4.46168e-25
7.41031e-24
3.39602e-25
6.94536e-24
2.43588e-25
6.34366e-24
1.6057e-25
5.59279e-24
9.27942e-26
4.67945e-24
4.24502e-26
3.5902e-24
1.09022e-26
2.30981e-24
8.58903e-25
3.80174e-27
-8.62198e-25
1.47695e-26
-2.31906e-24
3.22541e-26
-3.60559e-24
5.55639e-26
-4.70074e-24
8.39509e-26
-5.61907e-24
1.16655e-25
-6.37435e-24
1.52884e-25
-6.97983e-24
1.91784e-25
-7.44766e-24
2.32489e-25
-7.78911e-24
2.74713e-25
-8.01471e-24
3.18598e-25
-8.13355e-24
3.64132e-25
-8.15547e-24
4.07737e-25
-8.0848e-24
4.49348e-25
-7.931e-24
4.90192e-25
-7.70233e-24
5.29724e-25
-7.40389e-24
5.67342e-25
-7.04142e-24
6.02693e-25
-6.62076e-24
6.35484e-25
-6.14744e-24
6.65452e-25
-5.62673e-24
6.92361e-25
-5.06382e-24
7.16017e-25
-4.46378e-24
7.36255e-25
-3.83159e-24
7.52938e-25
-3.17222e-24
7.6595e-25
-2.49059e-24
7.75217e-25
-1.79162e-24
7.80683e-25
-1.08025e-24
7.8232e-25
-3.61415e-25
7.8012e-25
3.59911e-25
7.74095e-25
1.07876e-24
7.64281e-25
1.79016e-24
7.50738e-25
2.48918e-24
7.33554e-25
3.17087e-24
7.12838e-25
3.83032e-24
6.88741e-25
4.46258e-24
6.61425e-25
5.06273e-24
6.31102e-25
5.62575e-24
5.98002e-25
6.14659e-24
5.62399e-25
6.62005e-24
5.24588e-25
7.04085e-24
4.84932e-25
7.40348e-24
4.4403e-25
7.70208e-24
4.02443e-25
7.93092e-24
3.58934e-25
8.08491e-24
3.13573e-25
8.15576e-24
2.69937e-25
8.13402e-24
2.28062e-25
8.01536e-24
1.87825e-25
7.78992e-24
1.49393e-25
7.44869e-24
1.13628e-25
6.98105e-24
8.16239e-26
6.3756e-24
5.39495e-26
5.62039e-24
3.11909e-26
4.70226e-24
1.40142e-26
3.60692e-24
3.6012e-27
2.32042e-24
8.62501e-25
-3.41174e-27
-8.58803e-25
-1.32033e-26
-2.30907e-24
-2.92322e-26
-3.58938e-24
-5.0912e-26
-4.67889e-24
-7.75829e-26
-5.59223e-24
-1.08548e-25
-6.34322e-24
-1.43073e-25
-6.94515e-24
-1.80334e-25
-7.41025e-24
-2.1949e-25
-7.74981e-24
-2.60256e-25
-7.97381e-24
-3.02784e-25
-8.0909e-24
-3.47075e-25
-8.11106e-24
-3.89545e-25
-8.04222e-24
-4.30145e-25
-7.89029e-24
-4.70107e-25
-7.66227e-24
-5.08874e-25
-7.36503e-24
-5.4585e-25
-7.00435e-24
-5.80673e-25
-6.58586e-24
-6.13055e-25
-6.11498e-24
-6.42728e-25
-5.59699e-24
-6.69456e-25
-5.03703e-24
-6.9304e-25
-4.44013e-24
-7.13314e-25
-3.81127e-24
-7.30138e-25
-3.15535e-24
-7.43399e-25
-2.47729e-24
-7.53013e-25
-1.78198e-24
-7.58923e-25
-1.07431e-24
-7.61091e-25
-3.59226e-25
-7.59509e-25
3.58343e-25
-7.5418e-25
1.07344e-24
-7.45137e-25
1.78112e-24
-7.32427e-25
2.47647e-24
-7.16129e-25
3.15456e-24
-6.96349e-25
3.81052e-24
-6.73225e-25
4.43944e-24
-6.46917e-25
5.03639e-24
-6.17621e-25
5.59642e-24
-5.85558e-25
6.11448e-24
-5.50996e-25
6.58543e-24
-5.14221e-25
7.00401e-24
-4.75583e-25
7.36477e-24
-4.35678e-25
7.6621e-24
-3.95056e-25
7.89022e-24
-3.52479e-25
8.04224e-24
-3.07992e-25
8.11117e-24
-2.65174e-25
8.0911e-24
-2.24052e-25
7.97413e-24
-1.84511e-25
7.75026e-24
-1.46702e-25
7.41075e-24
-1.11481e-25
6.94571e-24
-7.99907e-26
6.34398e-24
-5.28285e-26
5.5931e-24
-3.04564e-26
4.67964e-24
-1.36247e-26
3.59033e-24
-3.51065e-27
2.30993e-24
8.5898e-25
-1.06618e-26
-8.48012e-25
-4.13104e-26
-2.2782e-24
-9.09306e-26
-3.53952e-24
-1.57712e-25
-4.61187e-24
-2.39599e-25
-5.51011e-24
-3.34412e-25
-6.24818e-24
-4.3991e-25
-6.83943e-24
-5.5392e-25
-7.29603e-24
-6.74584e-25
-7.62894e-24
-7.99866e-25
-7.84833e-24
-9.26756e-25
-7.96382e-24
-1.05479e-24
-7.98285e-24
-1.18271e-24
-7.91414e-24
-1.30834e-24
-7.76452e-24
-1.43019e-24
-7.54028e-24
-1.54743e-24
-7.24765e-24
-1.65903e-24
-6.89263e-24
-1.76402e-24
-6.48077e-24
-1.86151e-24
-6.01738e-24
-1.95074e-24
-5.50767e-24
-2.03104e-24
-4.95665e-24
-2.1018e-24
-4.3693e-24
-2.16254e-24
-3.75047e-24
-2.21281e-24
-3.10502e-24
-2.2523e-24
-2.43775e-24
-2.28076e-24
-1.75348e-24
-2.29802e-24
-1.05702e-24
-2.30398e-24
-3.53248e-25
-2.29861e-24
3.52985e-25
-2.28194e-24
1.05676e-24
-2.25405e-24
1.75323e-24
-2.21511e-24
2.4375e-24
-2.16537e-24
3.10479e-24
-2.10514e-24
3.75025e-24
-2.03484e-24
4.36909e-24
-1.95496e-24
4.95645e-24
-1.86611e-24
5.50749e-24
-1.76893e-24
6.01722e-24
-1.66422e-24
6.48063e-24
-1.55281e-24
6.8925e-24
-1.43571e-24
7.24755e-24
-1.31391e-24
7.54018e-24
-1.18827e-24
7.76444e-24
-1.06023e-24
7.91406e-24
-9.32008e-25
7.98279e-24
-8.04865e-25
7.96379e-24
-6.79216e-25
7.8483e-24
-5.58038e-25
7.6289e-24
-4.4355e-25
7.29607e-24
-3.3761e-25
6.83957e-24
-2.42057e-25
6.24823e-24
-1.59361e-25
5.5102e-24
-9.20547e-26
4.61224e-24
-4.2177e-26
3.53988e-24
-1.09244e-26
2.27875e-24
8.48045e-25
-1.79623e-26
-8.30013e-25
-6.96505e-26
-2.22617e-24
-1.53166e-25
-3.45568e-24
-2.65367e-25
-4.49935e-24
-4.02748e-25
-5.37242e-24
-5.61628e-25
-6.089e-24
-7.38268e-25
-6.6625e-24
-9.29011e-25
-7.105e-24
-1.1303e-24
-7.42739e-24
-1.33875e-24
-7.63963e-24
-1.55145e-24
-7.75089e-24
-1.76528e-24
-7.76879e-24
-1.97795e-24
-7.70126e-24
-2.18704e-24
-7.55523e-24
-2.39031e-24
-7.33682e-24
-2.5858e-24
-7.05199e-24
-2.77176e-24
-6.70652e-24
-2.94664e-24
-6.30575e-24
-3.10898e-24
-5.85491e-24
-3.25755e-24
-5.35898e-24
-3.39118e-24
-4.82291e-24
-3.50893e-24
-4.25145e-24
-3.60993e-24
-3.64939e-24
-3.69352e-24
-3.02137e-24
-3.7591e-24
-2.37211e-24
-3.80632e-24
-1.70623e-24
-3.83486e-24
-1.02846e-24
-3.84459e-24
-3.43502e-25
-3.83542e-24
3.43824e-25
-3.80746e-24
1.02879e-24
-3.76081e-24
1.70655e-24
-3.69576e-24
2.37242e-24
-3.61269e-24
3.02167e-24
-3.51218e-24
3.64967e-24
-3.39487e-24
4.25171e-24
-3.26166e-24
4.82315e-24
-3.11346e-24
5.35919e-24
-2.95144e-24
5.85508e-24
-2.77682e-24
6.30588e-24
-2.59106e-24
6.7066e-24
-2.3957e-24
7.05202e-24
-2.19249e-24
7.33679e-24
-1.98338e-24
7.55514e-24
-1.77062e-24
7.70111e-24
-1.55661e-24
7.76856e-24
-1.34362e-24
7.75058e-24
-1.13483e-24
7.63927e-24
-9.33187e-25
7.42701e-24
-7.41892e-25
7.10452e-24
-5.64513e-25
6.66193e-24
-4.0518e-25
6.08862e-24
-2.6738e-25
5.37212e-24
-1.54453e-25
4.49892e-24
-7.00742e-26
3.45557e-24
-1.80809e-26
2.22628e-24
8.29947e-25
-2.54359e-26
-8.04404e-25
-9.84787e-26
-2.15274e-24
-2.16307e-25
-3.33745e-24
-3.744e-25
-4.34086e-24
-5.67732e-25
-5.1787e-24
-7.91025e-25
-5.86534e-24
-1.03899e-24
-6.41419e-24
-1.30643e-24
-6.83721e-24
-1.58842e-24
-7.14507e-24
-1.88033e-24
-7.34742e-24
-2.1779e-24
-7.45302e-24
-2.47706e-24
-7.46936e-24
-2.77438e-24
-7.40368e-24
-3.06656e-24
-7.26281e-24
-3.35059e-24
-7.05257e-24
-3.62372e-24
-6.77866e-24
-3.88351e-24
-6.44653e-24
-4.12777e-24
-6.06132e-24
-4.35453e-24
-5.62801e-24
-4.56199e-24
-5.15138e-24
-4.74861e-24
-4.63617e-24
-4.91301e-24
-4.08695e-24
-5.05402e-24
-3.5083e-24
-5.17066e-24
-2.90466e-24
-5.26216e-24
-2.28055e-24
-5.32795e-24
-1.64038e-24
-5.36768e-24
-9.88711e-25
-5.38113e-24
-3.30039e-25
-5.36822e-24
3.30915e-25
-5.32903e-24
9.89577e-25
-5.26376e-24
1.64123e-24
-5.17276e-24
2.28138e-24
-5.05661e-24
2.90544e-24
-4.91606e-24
3.50904e-24
-4.75209e-24
4.08763e-24
-4.56586e-24
4.63681e-24
-4.35874e-24
5.15193e-24
-4.13229e-24
5.62849e-24
-3.88828e-24
6.06169e-24
-3.62868e-24
6.44682e-24
-3.35567e-24
6.77881e-24
-3.07171e-24
7.05261e-24
-2.77952e-24
7.2627e-24
-2.48211e-24
7.40344e-24
-2.18278e-24
7.46896e-24
-1.88501e-24
7.45251e-24
-1.59277e-24
7.34673e-24
-1.3103e-24
7.14423e-24
-1.04242e-24
6.83632e-24
-7.94165e-25
6.41333e-24
-5.70136e-25
5.86425e-24
-3.75943e-25
5.17758e-24
-2.17435e-25
4.34018e-24
-9.94505e-26
3.33689e-24
-2.57707e-26
2.15253e-24
8.04158e-25
-3.30272e-26
-7.71284e-25
-1.27917e-25
-2.05735e-24
-2.80717e-25
-3.18416e-24
-4.85424e-25
-4.13569e-24
-7.35331e-25
-4.92834e-24
-1.02351e-24
-5.57672e-24
-1.34306e-24
-6.09421e-24
-1.68728e-24
-6.49258e-24
-2.04984e-24
-6.78213e-24
-2.42481e-24
-6.97208e-24
-2.80684e-24
-7.07065e-24
-3.19078e-24
-7.08509e-24
-3.57208e-24
-7.02207e-24
-3.94664e-24
-6.88797e-24
-4.31068e-24
-6.68826e-24
-4.66068e-24
-6.42842e-24
-4.99361e-24
-6.11338e-24
-5.30656e-24
-5.74816e-24
-5.59712e-24
-5.33727e-24
-5.8629e-24
-4.88543e-24
-6.10202e-24
-4.3969e-24
-6.3126e-24
-3.87625e-24
-6.49326e-24
-3.32753e-24
-6.64259e-24
-2.75523e-24
-6.75977e-24
-2.16331e-24
-6.84391e-24
-1.55619e-24
-6.89473e-24
-9.37869e-25
-6.91179e-24
-3.12969e-25
-6.89521e-24
3.14322e-25
-6.84487e-24
9.39207e-25
-6.76121e-24
1.55751e-24
-6.64448e-24
2.16458e-24
-6.49559e-24
2.75646e-24
-6.31534e-24
3.32868e-24
-6.10516e-24
3.87733e-24
-5.86638e-24
4.39787e-24
-5.60093e-24
4.88631e-24
-5.31064e-24
5.338e-24
-4.99793e-24
5.74877e-24
-4.66516e-24
6.11381e-24
-4.3153e-24
6.42871e-24
-3.9513e-24
6.68834e-24
-3.57676e-24
6.88787e-24
-3.19538e-24
7.02175e-24
-2.81133e-24
7.08458e-24
-2.42905e-24
7.06988e-24
-2.05382e-24
6.97114e-24
-1.69101e-24
6.78104e-24
-1.34636e-24
6.49128e-24
-1.02607e-24
6.09265e-24
-7.3753e-25
5.57529e-24
-4.87465e-25
4.9271e-24
-2.82023e-25
4.13422e-24
-1.28299e-25
3.18306e-24
-3.31304e-26
2.05681e-24
7.71003e-25
-4.09318e-26
-7.30139e-25
-1.5825e-25
-1.93949e-24
-3.46904e-25
-2.99496e-24
-5.99067e-25
-3.88298e-24
-9.06332e-25
-4.62055e-24
-1.25998e-24
-5.22257e-24
-1.65141e-24
-5.70229e-24
-2.07244e-24
-6.07109e-24
-2.51533e-24
-6.3388e-24
-2.97293e-24
-6.51405e-24
-3.43868e-24
-6.60449e-24
-3.90655e-24
-6.61684e-24
-4.37097e-24
-6.5573e-24
-4.82703e-24
-6.43158e-24
-5.27011e-24
-6.24488e-24
-5.6961e-24
-6.00214e-24
-6.1012e-24
-5.70803e-24
-6.48207e-24
-5.36706e-24
-6.83556e-24
-4.98356e-24
-7.15903e-24
-4.56178e-24
-7.44995e-24
-4.10583e-24
-7.70626e-24
-3.6198e-24
-7.92601e-24
-3.10766e-24
-8.10775e-24
-2.57339e-24
-8.25017e-24
-2.02082e-24
-8.3525e-24
-1.45382e-24
-8.41411e-24
-8.76227e-25
-8.43485e-24
-2.92228e-25
-8.41453e-24
2.93978e-25
-8.35332e-24
8.77957e-25
-8.25139e-24
1.45552e-24
-8.10936e-24
2.02246e-24
-7.92799e-24
2.57498e-24
-7.70858e-24
3.10914e-24
-7.45261e-24
3.62119e-24
-7.16199e-24
4.10708e-24
-6.8388e-24
4.56292e-24
-6.48554e-24
4.98451e-24
-6.10488e-24
5.36786e-24
-5.69994e-24
5.7086e-24
-5.27406e-24
6.00253e-24
-4.83104e-24
6.24501e-24
-4.37501e-24
6.4315e-24
-3.91054e-24
6.55692e-24
-3.44256e-24
6.61622e-24
-2.97667e-24
6.60359e-24
-2.51888e-24
6.51293e-24
-2.07559e-24
6.33731e-24
-1.65424e-24
6.06948e-24
-1.26271e-24
5.70064e-24
-9.08562e-25
5.22067e-24
-6.00363e-25
4.61842e-24
-3.4792e-25
3.88139e-24
-1.59325e-25
2.99369e-24
-4.1427e-26
1.93869e-24
7.29552e-25
-4.91624e-26
-6.80829e-25
-1.89741e-25
-1.79828e-24
-4.15326e-25
-2.76875e-24
-7.16121e-25
-3.58159e-24
-1.08168e-24
-4.25441e-24
-1.50139e-24
-4.80229e-24
-1.96496e-24
-5.23818e-24
-2.46269e-24
-5.57283e-24
-2.98548e-24
-5.81551e-24
-3.52503e-24
-5.97403e-24
-4.07367e-24
-6.05541e-24
-4.62444e-24
-6.06565e-24
-5.17088e-24
-6.01047e-24
-5.70729e-24
-5.89479e-24
-6.22828e-24
-5.72356e-24
-6.72915e-24
-5.50096e-24
-7.20536e-24
-5.23154e-24
-7.65312e-24
-4.91904e-24
-8.06865e-24
-4.5678e-24
-8.44898e-24
-4.18125e-24
-8.79097e-24
-3.76366e-24
-9.09238e-24
-3.31823e-24
-9.35071e-24
-2.84921e-24
-9.56443e-24
-2.35957e-24
-9.73171e-24
-1.85346e-24
-9.85193e-24
-1.33356e-24
-9.92412e-24
-8.0401e-25
-9.94846e-24
-2.67892e-25
-9.92444e-24
2.69929e-25
-9.85257e-24
8.06037e-25
-9.73264e-24
1.33552e-24
-9.56568e-24
1.85539e-24
-9.35221e-24
2.36138e-24
-9.09419e-24
2.85097e-24
-8.79299e-24
3.31981e-24
-8.45129e-24
3.76516e-24
-8.07112e-24
4.18251e-24
-7.65584e-24
4.56897e-24
-7.20818e-24
4.91992e-24
-6.73217e-24
5.23229e-24
-6.23133e-24
5.50136e-24
-5.71048e-24
5.7238e-24
-5.17401e-24
5.89464e-24
-4.62763e-24
6.01013e-24
-4.07676e-24
6.06492e-24
-3.52807e-24
6.05444e-24
-2.98826e-24
5.97265e-24
-2.46546e-24
5.81402e-24
-1.96747e-24
5.57098e-24
-1.50335e-24
5.236e-24
-1.08333e-24
4.80012e-24
-7.17911e-25
4.25246e-24
-4.1661e-25
3.57948e-24
-1.90073e-25
2.76688e-24
-4.91131e-26
1.79713e-24
6.8041e-25
-5.77527e-26
-6.22836e-25
-2.22788e-25
-1.63258e-24
-4.86692e-25
-2.50417e-24
-8.37481e-25
-3.23014e-24
-1.26233e-24
-3.82891e-24
-1.74872e-24
-4.31529e-24
-2.28459e-24
-4.7017e-24
-2.8587e-24
-4.99815e-24
-3.4608e-24
-5.21287e-24
-4.08135e-24
-5.35296e-24
-4.7118e-24
-5.42446e-24
-5.34418e-24
-5.43281e-24
-5.97141e-24
-5.38281e-24
-6.58678e-24
-5.27901e-24
-7.18447e-24
-5.12549e-24
-7.75882e-24
-4.92627e-24
-8.30507e-24