/*--------------------------------*- C++ -*----------------------------------*\
| =========                 |                                                 |
| \\      /  F ield         | OpenFOAM: The Open Source CFD Toolbox           |
|  \\    /   O peration     | Version:  5.0                                   |
|   \\  /    A nd           | Web:      www.OpenFOAM.org                      |
|    \\/     M anipulation  |                                                 |
\*---------------------------------------------------------------------------*/
FoamFile
{
    version     2.0;
    format      ascii;
    class       surfaceScalarField;
    location    "441";
    object      phi;
}
// * * * * * * * * * * * * * * * * * * * * * * * * * * * * * * * * * * * * * //

dimensions      [0 3 -1 0 0 0 0];

internalField   nonuniform List<scalar> 
3052
(
3.88082e-25
-4.46189e-25
1.39762e-24
-1.01052e-24
2.93517e-24
-1.53845e-24
4.85539e-24
-1.92109e-24
7.0934e-24
-2.23887e-24
9.60192e-24
-2.50935e-24
1.23191e-23
-2.71801e-24
1.51976e-23
-2.87924e-24
1.81956e-23
-2.99873e-24
2.12715e-23
-3.07651e-24
2.43865e-23
-3.11563e-24
2.75058e-23
-3.11993e-24
3.05971e-23
-3.09178e-24
3.36293e-23
-3.03271e-24
3.65741e-23
-2.94533e-24
3.94056e-23
-2.83188e-24
4.20994e-23
-2.69418e-24
4.46334e-23
-2.53436e-24
4.69875e-23
-2.35442e-24
4.91436e-23
-2.15645e-24
5.10857e-23
-1.9423e-24
5.27995e-23
-1.71397e-24
5.42728e-23
-1.47354e-24
5.54902e-23
-1.21752e-24
5.64514e-23
-9.613e-25
5.71553e-23
-7.0392e-25
5.75827e-23
-4.27484e-25
5.77252e-23
-1.42461e-25
5.75866e-23
1.38714e-25
5.71631e-23
4.23648e-25
5.64629e-23
7.00375e-25
5.55052e-23
9.57879e-25
5.42912e-23
1.21422e-24
5.28211e-23
1.47035e-24
5.11106e-23
1.71089e-24
4.91716e-23
1.93926e-24
4.70181e-23
2.15389e-24
4.46666e-23
2.35189e-24
4.21349e-23
2.5322e-24
3.9443e-23
2.69232e-24
3.66133e-23
2.83027e-24
3.36699e-23
2.94386e-24
3.06388e-23
3.03167e-24
2.75485e-23
3.09087e-24
2.44295e-23
3.11963e-24
2.13147e-23
3.11541e-24
1.82395e-23
3.07588e-24
1.52419e-23
2.99825e-24
1.23626e-23
2.88006e-24
9.64604e-24
2.71727e-24
7.14099e-24
2.50581e-24
4.9007e-24
2.24105e-24
2.98272e-24
1.91875e-24
1.45745e-24
1.52611e-24
4.36253e-25
1.02187e-24
4.36347e-25
3.7083e-25
-8.18023e-25
1.29323e-24
-1.93583e-24
2.65948e-24
-2.90746e-24
4.42031e-24
-3.68463e-24
6.4995e-24
-4.32071e-24
8.82321e-24
-4.83564e-24
1.1348e-23
-5.24525e-24
1.40282e-23
-5.56184e-24
1.68187e-23
-5.79144e-24
1.96816e-23
-5.94142e-24
2.25821e-23
-6.01814e-24
2.54869e-23
-6.02651e-24
2.83646e-23
-5.97114e-24
3.11871e-23
-5.85681e-24
3.39282e-23
-5.6879e-24
3.65633e-23
-5.46828e-24
3.90699e-23
-5.20203e-24
4.14276e-23
-4.89315e-24
4.36176e-23
-4.54534e-24
4.56227e-23
-4.16242e-24
4.74278e-23
-3.74812e-24
4.90195e-23
-3.30624e-24
5.03859e-23
-2.84046e-24
5.15225e-23
-2.35448e-24
5.2423e-23
-1.86204e-24
5.30757e-23
-1.35675e-24
5.34746e-23
-8.26317e-25
5.36106e-23
-2.78315e-25
5.34782e-23
2.71469e-25
5.30826e-23
8.1971e-25
5.2433e-23
1.35056e-24
5.15356e-23
1.856e-24
5.04021e-23
2.34851e-24
4.90387e-23
2.83469e-24
4.74497e-23
3.30088e-24
4.56471e-23
3.74301e-24
4.36444e-23
4.1578e-24
4.14566e-23
4.5411e-24
3.91008e-23
4.88945e-24
3.65958e-23
5.19881e-24
3.39621e-23
5.46564e-24
3.12218e-23
5.68578e-24
2.83999e-23
5.8554e-24
2.55225e-23
5.97018e-24
2.26181e-23
6.02604e-24
1.97173e-23
6.01826e-24
1.68532e-23
5.9421e-24
1.40615e-23
5.7922e-24
1.13811e-23
5.56275e-24
8.85404e-24
5.24671e-24
6.52556e-24
4.83672e-24
4.44764e-24
4.32143e-24
2.68224e-24
3.68666e-24
1.29984e-24
2.91069e-24
3.69838e-25
1.95424e-24
8.06306e-25
2.86465e-25
-1.10543e-24
1.10303e-24
-2.75494e-24
2.3479e-24
-4.15482e-24
3.95717e-24
-5.29631e-24
5.86027e-24
-6.22615e-24
8.00564e-24
-6.98329e-24
1.03409e-23
-7.5827e-24
1.28202e-23
-8.04325e-24
1.54046e-23
-8.37781e-24
1.80576e-23
-8.59632e-24
2.07451e-23
-8.70741e-24
2.3436e-23
-8.7191e-24
2.61023e-23
-8.63893e-24
2.87171e-23
-8.47311e-24
3.12559e-23
-8.228e-24
3.36962e-23
-7.90973e-24
3.60173e-23
-7.52421e-24
3.82001e-23
-7.07683e-24
4.02272e-23
-6.57337e-24
4.20833e-23
-6.01922e-24
4.37544e-23
-5.41987e-24
4.52284e-23
-4.78072e-24
4.64952e-23
-4.10762e-24
4.75477e-23
-3.40726e-24
4.83736e-23
-2.6881e-24
4.89647e-23
-1.94793e-24
4.93213e-23
-1.18282e-24
4.94422e-23
-3.99075e-25
4.9324e-23
3.89927e-25
4.89703e-23
1.17381e-24
4.83821e-23
1.93924e-24
4.7559e-23
2.67973e-24
4.6509e-23
3.39921e-24
4.52447e-23
4.09983e-24
4.37732e-23
4.77332e-24
4.21043e-23
5.41297e-24
4.02503e-23
6.01292e-24
3.82249e-23
6.5677e-24
3.60438e-23
7.07185e-24
3.3724e-23
7.51998e-24
3.12848e-23
7.90629e-24
2.87468e-23
8.22533e-24
2.61327e-23
8.47123e-24
2.34666e-23
8.63798e-24
2.07754e-23
8.71909e-24
1.80874e-23
8.70809e-24
1.54338e-23
8.59766e-24
1.28482e-23
8.37984e-24
1.03669e-23
8.04613e-24
8.02965e-24
7.58616e-24
5.88222e-24
6.98637e-24
3.97394e-24
6.23188e-24
2.36106e-24
5.30163e-24
1.11056e-24
4.16398e-24
2.98819e-25
2.76739e-24
1.10523e-24
2.5264e-25
-1.35876e-24
9.64417e-25
-3.46904e-24
2.07445e-24
-5.26702e-24
3.52498e-24
-6.74891e-24
5.25821e-24
-7.9614e-24
7.21564e-24
-8.9427e-24
9.35318e-24
-9.72216e-24
1.16284e-23
-1.03203e-23
1.40026e-23
-1.07537e-23
1.64412e-23
-1.10365e-23
1.89129e-23
-1.11807e-23
2.13888e-23
-1.11964e-23
2.38416e-23
-1.10931e-23
2.62471e-23
-1.08798e-23
2.85826e-23
-1.05646e-23
3.08273e-23
-1.01555e-23
3.29619e-23
-9.65976e-24
3.49692e-23
-9.08494e-24
3.68333e-23
-8.43813e-24
3.85398e-23
-7.72639e-24
4.00762e-23
-6.95675e-24
4.14314e-23
-6.13634e-24
4.25958e-23
-5.27229e-24
4.35604e-23
-4.37207e-24
4.43149e-23
-3.44273e-24
4.48537e-23
-2.48671e-24
4.51766e-23
-1.50573e-24
4.52852e-23
-5.07442e-25
4.51789e-23
4.96411e-25
4.48581e-23
1.49494e-24
4.43216e-23
2.47623e-24
4.35692e-23
3.43259e-24
4.26069e-23
4.36221e-24
4.14445e-23
5.26292e-24
4.00911e-23
6.12747e-24
3.85564e-23
6.94855e-24
3.68515e-23
7.71881e-24
3.49889e-23
8.43138e-24
3.29829e-23
9.079e-24
3.08493e-23
9.65474e-24
2.86055e-23
1.01514e-23
2.62706e-23
1.05617e-23
2.38654e-23
1.08779e-23
2.14126e-23
1.10923e-23
1.89368e-23
1.11966e-23
1.64645e-23
1.1182e-23
1.40249e-23
1.1039e-23
1.16492e-23
1.07574e-23
9.37246e-24
1.03248e-23
7.23319e-24
9.72736e-24
5.27203e-24
8.94947e-24
3.53621e-24
7.96966e-24
2.08232e-24
6.75761e-24
9.68635e-25
5.27906e-24
2.57061e-25
3.4811e-24
1.36239e-24
2.22175e-25
-1.58171e-24
8.42573e-25
-4.09128e-24
1.83094e-24
-6.25723e-24
3.12673e-24
-8.04647e-24
4.68298e-24
-9.51936e-24
6.45133e-24
-1.07127e-23
8.38829e-24
-1.16608e-23
1.04542e-23
-1.23878e-23
1.26135e-23
-1.29145e-23
1.4834e-23
-1.32585e-23
1.70858e-23
-1.34338e-23
1.9342e-23
-1.34539e-23
2.15782e-23
-1.33304e-23
2.37714e-23
-1.30741e-23
2.59008e-23
-1.26949e-23
2.79472e-23
-1.22028e-23
2.98933e-23
-1.16066e-23
3.17229e-23
-1.09153e-23
3.34218e-23
-1.01376e-23
3.49769e-23
-9.28199e-24
3.63766e-23
-8.3569e-24
3.76108e-23
-7.37081e-24
3.86702e-23
-6.33194e-24
3.95466e-23
-5.24866e-24
4.02324e-23
-4.12855e-24
4.0723e-23
-2.97729e-24
4.10175e-23
-1.80014e-24
4.11162e-23
-6.06033e-25
4.1019e-23
5.93831e-25
4.07262e-23
1.78809e-24
4.02373e-23
2.9655e-24
3.95531e-23
4.11717e-24
3.86782e-23
5.2377e-24
3.76202e-23
6.3215e-24
3.63874e-23
7.36092e-24
3.4989e-23
8.34773e-24
3.3435e-23
9.27362e-24
3.17373e-23
1.01301e-23
2.99085e-23
1.09088e-23
2.79631e-23
1.16011e-23
2.59173e-23
1.21984e-23
2.37884e-23
1.26918e-23
2.15954e-23
1.30721e-23
1.93592e-23
1.33297e-23
1.71026e-23
1.34546e-23
1.48502e-23
1.34359e-23
1.26289e-23
1.32619e-23
1.04687e-23
1.29192e-23
8.40134e-24
1.23937e-23
6.4618e-24
1.16686e-23
4.69123e-24
1.07218e-23
3.13389e-24
9.52865e-24
1.83385e-24
8.05913e-24
8.45092e-25
6.27033e-24
2.19929e-25
4.10708e-24
1.5824e-24
1.89474e-25
-1.77159e-24
7.36783e-25
-4.64027e-24
1.60318e-24
-7.12519e-24
2.75056e-24
-9.19534e-24
4.13356e-24
-1.09038e-23
5.71161e-24
-1.22922e-23
7.44509e-24
-1.33956e-23
9.29821e-24
-1.42422e-23
1.12385e-23
-1.48561e-23
1.3236e-23
-1.52572e-23
1.52634e-23
-1.54624e-23
1.72961e-23
-1.54876e-23
1.93113e-23
-1.53465e-23
2.12881e-23
-1.50517e-23
2.32075e-23
-1.46152e-23
2.50523e-23
-1.40482e-23
2.68065e-23
-1.33614e-23
2.84556e-23
-1.2565e-23
2.99866e-23
-1.16691e-23
3.13879e-23
-1.06836e-23
3.26488e-23
-9.61817e-24
3.37601e-23
-8.48233e-24
3.47135e-23
-7.28556e-24
3.55018e-23
-6.03707e-24
3.61189e-23
-4.74567e-24
3.65608e-23
-3.41918e-24
3.68264e-23
-2.06561e-24
3.69153e-23
-6.94776e-25
3.68274e-23
6.81932e-25
3.65629e-23
2.0529e-24
3.61219e-23
3.40676e-24
3.55059e-23
4.73361e-24
3.47186e-23
6.02547e-24
3.37661e-23
7.27449e-24
3.26557e-23
8.47193e-24
3.13955e-23
9.60851e-24
2.9995e-23
1.06748e-23
2.84646e-23
1.16613e-23
2.6816e-23
1.25582e-23
2.50624e-23
1.33557e-23
2.3218e-23
1.40438e-23
2.12987e-23
1.46121e-23
1.9322e-23
1.505e-23
1.73068e-23
1.53461e-23
1.52738e-23
1.54888e-23
1.32458e-23
1.54651e-23
1.12478e-23
1.52612e-23
9.30636e-24
1.4862e-23
7.45175e-24
1.42498e-23
5.71778e-24
1.3404e-23
4.13852e-24
1.23025e-23
2.75224e-24
1.09164e-23
1.60476e-24
9.20826e-24
7.38245e-25
7.13748e-24
1.93357e-25
4.65377e-24
1.77583e-24
1.647e-25
-1.9369e-24
6.37951e-25
-5.1148e-24
1.39147e-24
-7.88002e-24
2.39309e-24
-1.01982e-23
3.60548e-24
-1.21174e-23
4.99306e-24
-1.36809e-23
6.52175e-24
-1.49254e-23
8.15982e-24
-1.58814e-23
9.87766e-24
-1.6575e-23
1.16482e-23
-1.70287e-23
1.3447e-23
-1.72622e-23
1.52516e-23
-1.7293e-23
1.70412e-23
-1.71369e-23
1.87973e-23
-1.68085e-23
2.05028e-23
-1.63213e-23
2.21419e-23
-1.5688e-23
2.37006e-23
-1.49205e-23
2.51658e-23
-1.40307e-23
2.6526e-23
-1.30297e-23
2.77706e-23
-1.19286e-23
2.88904e-23
-1.07382e-23
2.9877e-23
-9.46913e-24
3.07232e-23
-8.13187e-24
3.14226e-23
-6.73662e-24
3.19703e-23
-5.2934e-24
3.23629e-23
-3.81175e-24
3.25989e-23
-2.30152e-24
3.26778e-23
-7.73527e-25
3.25994e-23
7.60523e-25
3.23639e-23
2.28867e-24
3.19718e-23
3.79917e-24
3.14246e-23
5.28118e-24
3.07256e-23
6.72488e-24
2.98798e-23
8.12068e-24
2.88936e-23
9.45864e-24
2.77742e-23
1.07285e-23
2.65299e-23
1.19198e-23
2.517e-23
1.30219e-23
2.37051e-23
1.40239e-23
2.21466e-23
1.49149e-23
2.05076e-23
1.56836e-23
1.88022e-23
1.63184e-23
1.70461e-23
1.6807e-23
1.52563e-23
1.71369e-23
1.34516e-23
1.72945e-23
1.16524e-23
1.72654e-23
9.8812e-24
1.70336e-23
8.16299e-24
1.65814e-23
6.52457e-24
1.58894e-23
4.9943e-24
1.49355e-23
3.60562e-24
1.36924e-23
2.39395e-24
1.21292e-23
1.39181e-24
1.02113e-23
6.3677e-25
7.89469e-24
1.64438e-25
5.12642e-24
1.94032e-24
1.41265e-25
-2.07838e-24
5.44164e-25
-5.51889e-24
1.19007e-24
-8.52703e-24
2.04984e-24
-1.1059e-23
3.09426e-24
-1.31628e-23
4.29309e-24
-1.48807e-23
5.61684e-24
-1.62501e-23
7.03792e-24
-1.73034e-23
8.53056e-24
-1.80685e-23
1.00709e-23
-1.85698e-23
1.16372e-23
-1.88293e-23
1.32095e-23
-1.8866e-23
1.47695e-23
-1.86976e-23
1.63007e-23
-1.83404e-23
1.7788e-23
-1.78092e-23
1.92177e-23
-1.71181e-23
2.05771e-23
-1.62804e-23
2.18551e-23
-1.5309e-23
2.30413e-23
-1.42162e-23
2.41266e-23
-1.30142e-23
2.51028e-23
-1.17147e-23
2.59627e-23
-1.03292e-23
2.67001e-23
-8.86934e-24
2.73096e-23
-7.34619e-24
2.77871e-23
-5.77085e-24
2.81296e-23
-4.15421e-24
2.83355e-23
-2.5074e-24
2.84043e-23
-8.42097e-25
2.83355e-23
8.29444e-25
2.81295e-23
2.49486e-24
2.77871e-23
4.14193e-24
2.73096e-23
5.75893e-24
2.67001e-23
7.33473e-24
2.59628e-23
8.85844e-24
2.51029e-23
1.0319e-23
2.41266e-23
1.17052e-23
2.30414e-23
1.30056e-23
2.18552e-23
1.42086e-23
2.05772e-23
1.53025e-23
1.92178e-23
1.62751e-23
1.77881e-23
1.7114e-23
1.63008e-23
1.78065e-23
1.47695e-23
1.83391e-23
1.32093e-23
1.86979e-23
1.16369e-23
1.88679e-23
1.00704e-23
1.88328e-23
8.52995e-24
1.8575e-23
7.03697e-24
1.80754e-23
5.61533e-24
1.7312e-23
4.29186e-24
1.626e-23
3.09325e-24
1.4892e-23
2.04767e-24
1.31758e-23
1.1882e-24
1.1072e-23
5.44037e-25
8.53888e-24
1.4169e-25
5.53025e-24
2.08205e-24
1.17544e-25
-2.19641e-24
4.54961e-25
-5.85712e-24
9.96028e-25
-9.06894e-24
1.71817e-24
-1.1782e-23
2.59744e-24
-1.40428e-23
3.60877e-24
-1.58928e-23
4.72781e-24
-1.73699e-23
5.93115e-24
-1.85074e-23
7.19667e-24
-1.93347e-23
8.50406e-24
-1.98779e-23
9.83468e-24
-2.01605e-23
1.11711e-23
-2.0203e-23
1.24977e-23
-2.00247e-23
1.38002e-23
-1.96434e-23
1.50657e-23
-1.90751e-23
1.62822e-23
-1.83349e-23
1.7439e-23
-1.74375e-23
1.85264e-23
-1.63967e-23
1.95356e-23
-1.52258e-23
2.0459e-23
-1.39377e-23
2.12894e-23
-1.25452e-23
2.20208e-23
-1.10607e-23
2.26479e-23
-9.49649e-24
2.31662e-23
-7.86458e-24
2.35723e-23
-6.17697e-24
2.38638e-23
-4.44561e-24
2.40391e-23
-2.68259e-24
2.40974e-23
-9.0033e-25
2.40386e-23
8.88401e-25
2.38629e-23
2.67077e-24
2.35711e-23
4.43401e-24
2.31646e-23
6.1657e-24
2.26459e-23
7.85376e-24
2.20184e-23
9.48621e-24
2.12867e-23
1.10511e-23
2.0456e-23
1.25363e-23
1.95324e-23
1.39297e-23
1.85228e-23
1.52186e-23
1.74352e-23
1.63906e-23
1.62783e-23
1.74326e-23
1.50616e-23
1.83312e-23
1.37961e-23
1.90727e-23
1.24934e-23
1.96424e-23
1.11668e-23
2.00252e-23
9.83036e-24
2.0205e-23
8.49975e-24
2.01641e-23
7.1923e-24
1.98832e-23
5.92691e-24
1.93415e-23
4.72398e-24
1.85157e-23
3.60489e-24
1.73799e-23
2.59367e-24
1.5904e-23
1.71587e-24
1.40544e-23
9.94308e-25
1.17941e-23
4.53767e-25
9.08124e-24
1.16833e-25
5.86709e-24
2.19892e-24
9.51571e-26
-2.29162e-24
3.68842e-25
-6.13153e-24
8.0815e-25
-9.50891e-24
1.39564e-24
-1.23701e-23
2.11205e-24
-1.47598e-23
2.93751e-24
-1.67188e-23
3.85237e-24
-1.82853e-23
4.83748e-24
-1.9493e-23
5.87466e-24
-2.03724e-23
6.94713e-24
-2.09508e-23
8.03944e-24
-2.12533e-23
9.1371e-24
-2.13011e-23
1.0227e-23
-2.1115e-23
1.12976e-23
-2.07143e-23
1.23378e-23
-2.01156e-23
1.33379e-23
-1.93353e-23
1.42889e-23
-1.83888e-23
1.51829e-23
-1.72909e-23
1.60127e-23
-1.60556e-23
1.67717e-23
-1.46968e-23
1.74542e-23
-1.32279e-23
1.80553e-23
-1.16619e-23
1.85706e-23
-1.00118e-23
1.89966e-23
-8.29054e-24
1.93304e-23
-6.51071e-24
1.95699e-23
-4.6851e-24
1.97139e-23
-2.82653e-24
1.97618e-23
-9.48053e-25
1.97132e-23
9.37137e-25
1.95684e-23
2.81574e-24
1.93281e-23
4.67453e-24
1.89936e-23
6.50045e-24
1.85669e-23
8.28067e-24
1.80509e-23
1.00025e-23
1.74492e-23
1.16531e-23
1.67661e-23
1.32198e-23
1.60066e-23
1.46895e-23
1.51764e-23
1.60492e-23
1.4282e-23
1.72854e-23
1.33306e-23
1.83844e-23
1.23303e-23
1.9332e-23
1.12899e-23
2.01136e-23
1.02193e-23
2.07135e-23
9.12939e-24
2.11156e-23
8.03179e-24
2.13032e-23
6.93965e-24
2.12568e-23
5.86758e-24
2.09558e-23
4.83079e-24
2.03789e-23
3.84611e-24
1.9501e-23
2.93211e-24
1.82945e-23
2.10779e-24
1.67289e-23
1.39183e-24
1.47709e-23
8.05561e-25
1.23812e-23
3.67683e-25
9.51864e-24
9.54882e-26
6.14047e-24
2.29443e-24
7.34982e-26
-2.36546e-24
2.85153e-25
-6.34354e-24
6.25007e-25
-9.84916e-24
1.08007e-24
-1.28255e-23
1.63572e-24
-1.53158e-23
2.27686e-24
-1.73603e-23
2.98821e-24
-1.89969e-23
3.75493e-24
-2.02601e-23
4.56291e-24
-2.11806e-23
5.39897e-24
-2.17872e-23
6.25093e-24
-2.21055e-23
7.1072e-24
-2.21576e-23
7.95795e-24
-2.1966e-23
8.79381e-24
-2.15503e-23
9.60616e-24
-2.09281e-23
1.03871e-23
-2.01164e-23
1.11298e-23
-1.91316e-23
1.18279e-23
-1.79891e-23
1.24758e-23
-1.67036e-23
1.30685e-23
-1.52895e-23
1.36014e-23
-1.37608e-23
1.40706e-23
-1.21312e-23
1.44728e-23
-1.04141e-23
1.48053e-23
-8.623e-24
1.50659e-23
-6.77121e-24
1.52528e-23
-4.87201e-24
1.53652e-23
-2.9388e-24
1.54023e-23
-9.85082e-25
1.53641e-23
9.7551e-25
1.52507e-23
2.92929e-24
1.50627e-23
4.86268e-24
1.48011e-23
6.76215e-24
1.44677e-23
8.61432e-24
1.40645e-23
1.04059e-23
1.35944e-23
1.21234e-23
1.30607e-23
1.37537e-23
1.24674e-23
1.52831e-23
1.18189e-23
1.6698e-23
1.11203e-23
1.79843e-23
1.03772e-23
1.91278e-23
9.59586e-24
2.01136e-23
8.78334e-24
2.09264e-23
7.94742e-24
2.15498e-23
7.09672e-24
2.19666e-23
6.2407e-24
2.21596e-23
5.38912e-24
2.21088e-23
4.55354e-24
2.17918e-23
3.74622e-24
2.11866e-23
2.98053e-24
2.02671e-23
2.27027e-24
1.90051e-23
1.63007e-24
1.73695e-23
1.07599e-24
1.53254e-23
6.22382e-25
1.28349e-23
2.83919e-25
9.85857e-24
7.30057e-26
6.35093e-24
2.36745e-24
5.2322e-26
-2.41769e-24
2.03078e-25
-6.49456e-24
4.45341e-25
-1.00916e-23
7.69852e-25
-1.31502e-23
1.16638e-24
-1.57125e-23
1.62422e-24
-1.78183e-23
2.13258e-24
-1.95054e-23
2.681e-24
-2.08086e-23
3.25931e-24
-2.17591e-23
3.85773e-24
-2.23857e-23
4.46796e-24
-2.27159e-23
5.08117e-24
-2.27709e-23
5.69078e-24
-2.25757e-23
6.28983e-24
-2.21495e-23
6.87203e-24
-2.15104e-23
7.4317e-24
-2.06762e-23
7.96392e-24
-1.96639e-23
8.46418e-24
-1.84894e-23
8.92843e-24
-1.71679e-23
9.35304e-24
-1.57142e-23
9.73481e-24
-1.41426e-23
1.00709e-23
-1.24673e-23
1.03591e-23
-1.07022e-23
1.05972e-23
-8.86106e-24
1.07837e-23
-6.95768e-24
1.09175e-23
-5.00573e-24
1.09978e-23
-3.01902e-24
1.10242e-23
-1.01137e-24
1.09965e-23
1.00328e-24
1.09149e-23
3.01102e-24
1.07798e-23
4.99789e-24
1.0592e-23
6.95006e-24
1.03527e-23
8.85373e-24
1.00635e-23
1.06952e-23
9.72634e-24
1.24608e-23
9.34361e-24
1.41366e-23
8.91812e-24
1.57088e-23
8.45313e-24
1.71632e-23
7.95224e-24
1.84854e-23
7.41953e-24
1.96607e-23
6.8595e-24
2.06739e-23
6.27711e-24
2.1509e-23
5.67801e-24
2.21491e-23
5.06857e-24
2.25763e-23
4.4557e-24
2.27726e-23
3.84594e-24
2.27187e-23
3.24831e-24
2.23896e-23
2.67103e-24
2.17641e-23
2.12358e-24
2.08148e-23
1.61642e-24
1.95125e-23
1.16038e-24
1.78258e-23
7.65473e-25
1.57205e-23
4.42403e-25
1.31584e-23
2.0128e-25
1.00988e-23
5.20686e-26
6.50102e-24
2.41953e-24
3.14615e-26
-2.44935e-24
1.22295e-25
-6.58529e-24
2.68071e-25
-1.02373e-23
4.63228e-25
-1.33453e-23
7.01707e-25
-1.59509e-23
9.77066e-25
-1.80936e-23
1.28283e-24
-1.98112e-23
1.6127e-24
-2.11384e-23
1.96128e-24
-2.21076e-23
2.32276e-24
-2.27471e-23
2.68856e-24
-2.30816e-23
3.05726e-24
-2.31396e-23
3.42523e-24
-2.29436e-23
3.78636e-24
-2.25106e-23
4.1364e-24
-2.18604e-23
4.47298e-24
-2.10127e-23
4.79315e-24
-1.9984e-23
5.09411e-24
-1.87903e-23
5.37339e-24
-1.74471e-23
5.6288e-24
-1.59695e-23
5.85839e-24
-1.43721e-23
6.06049e-24
-1.26693e-23
6.23364e-24
-1.08752e-23
6.37668e-24
-9.00402e-24
6.48866e-24
-7.06958e-24
6.56891e-24
-5.0859e-24
6.61693e-24
-3.06696e-24
6.63246e-24
-1.02682e-24
6.61542e-24
1.0204e-24
6.56592e-24
3.0606e-24
6.48424e-24
5.07965e-24
6.37085e-24
7.06352e-24
6.22645e-24
8.99821e-24
6.05201e-24
1.08697e-23
5.84873e-24
1.26641e-23
5.61805e-24
1.43674e-23
5.36168e-24
1.59652e-23
5.08155e-24
1.74434e-23
4.77988e-24
1.87871e-23
4.45917e-24
1.99815e-23
4.12221e-24
2.10109e-23
3.77196e-24
2.18593e-23
3.41083e-24
2.25103e-23
3.04302e-24
2.29441e-23
2.67475e-24
2.3141e-23
2.30969e-24
2.30838e-23
1.94905e-24
2.27503e-23
1.60145e-24
2.21117e-23
1.27307e-24
2.11432e-23
9.69096e-25
1.98165e-23
6.9503e-25
1.80998e-23
4.58062e-25
1.59574e-23
2.64818e-25
1.33513e-23
1.21243e-25
1.02435e-23
3.12037e-26
6.59029e-24
2.45072e-24
1.08672e-26
-2.45998e-24
4.21925e-26
-6.61642e-24
9.21462e-26
-1.02871e-23
1.58736e-25
-1.34117e-23
2.39806e-25
-1.60318e-23
3.33191e-25
-1.81867e-23
4.36618e-25
-1.99143e-23
5.47649e-25
-2.12492e-23
6.63809e-25
-2.22236e-23
7.84281e-25
-2.28674e-23
9.09481e-25
-2.32066e-23
1.03938e-24
-2.32693e-23
1.16377e-24
-2.30678e-23
1.28247e-24
-2.26291e-23
1.39897e-24
-2.19767e-23
1.51173e-24
-2.11253e-23
1.61903e-24
-2.00912e-23
1.71987e-24
-1.8891e-23
1.8134e-24
-1.75405e-23
1.89889e-24
-1.60549e-23
1.97564e-24
-1.44487e-23
2.04312e-24
-1.27367e-23
2.10085e-24
-1.09329e-23
2.14844e-24
-9.05151e-24
2.18556e-24
-7.10661e-24
2.21199e-24
-5.11224e-24
2.22757e-24
-3.08247e-24
2.23224e-24
-1.03142e-24
2.22595e-24
1.02675e-24
2.20875e-24
3.07785e-24
2.18074e-24
5.1077e-24
2.14209e-24
7.10221e-24
2.09306e-24
9.04727e-24
2.03394e-24
1.09289e-23
1.96518e-24
1.27329e-23
1.88724e-24
1.44453e-23
1.80072e-24
1.60517e-23
1.70627e-24
1.75378e-23
1.60468e-24
1.88887e-23
1.4968e-24
2.00893e-23
1.38365e-24
2.1124e-23
1.26695e-24
2.19759e-23
1.14829e-24
2.26288e-23
1.02415e-24
2.30682e-23
8.94728e-25
2.32703e-23
7.70215e-25
2.32082e-23
6.50742e-25
2.28696e-23
5.35992e-25
2.22263e-23
4.26297e-25
2.12527e-23
3.24128e-25
1.99185e-23
2.32931e-25
1.81909e-23
1.54125e-25
1.6036e-23
8.9006e-26
1.34166e-23
3.98512e-26
1.02913e-23
1.0125e-26
6.62056e-24
2.46083e-24
-9.70292e-27
-2.45032e-24
-3.76215e-26
-6.58796e-24
-8.33101e-26
-1.02409e-23
-1.45108e-25
-1.33494e-23
-2.21132e-25
-1.59553e-23
-3.09415e-25
-1.8098e-23
-4.07869e-25
-1.98154e-23
-5.14142e-25
-2.11425e-23
-6.2584e-25
-2.21115e-23
-7.42141e-25
-2.27507e-23
-8.63481e-25
-2.30849e-23
-9.89869e-25
-2.31426e-23
-1.11107e-24
-2.29463e-23
-1.22694e-24
-2.25129e-23
-1.34099e-24
-2.18624e-23
-1.45162e-24
-2.10144e-23
-1.55715e-24
-1.99854e-23
-1.65654e-24
-1.87914e-23
-1.74896e-24
-1.74479e-23
-1.83365e-24
-1.597e-23
-1.90993e-24
-1.43723e-23
-1.97724e-24
-1.26692e-23
-2.0351e-24
-1.08749e-23
-2.08312e-24
-9.00336e-24
-2.12097e-24
-7.06864e-24
-2.14841e-24
-5.08471e-24
-2.16529e-24
-3.06552e-24
-2.17148e-24
-1.02517e-24
-2.16698e-24
1.02228e-24
-2.15178e-24
3.06267e-24
-2.12599e-24
5.08192e-24
-2.08974e-24
7.06594e-24
-2.04324e-24
9.00074e-24
-1.98681e-24
1.08724e-23
-1.92084e-24
1.26669e-23
-1.84578e-24
1.43701e-23
-1.76219e-24
1.5968e-23
-1.67072e-24
1.74462e-23
-1.5721e-24
1.87899e-23
-1.46718e-24
1.99842e-23
-1.35694e-24
2.10135e-23
-1.24307e-24
2.18619e-23
-1.12717e-24
2.25127e-23
-1.00569e-24
2.29464e-23
-8.78753e-25
2.3143e-23
-7.56566e-25
2.30857e-23
-6.39233e-25
2.27519e-23
-5.2648e-25
2.21132e-23
-4.1856e-25
2.11444e-23
-3.17921e-25
1.98175e-23
-2.28196e-25
1.81007e-23
-1.50923e-25
1.59584e-23
-8.68802e-26
1.33518e-23
-3.86878e-26
1.02438e-23
-9.83382e-27
6.59065e-24
2.45097e-24
-3.04424e-26
-2.41951e-24
-1.17844e-25
-6.49991e-24
-2.59372e-25
-1.00987e-23
-4.49857e-25
-1.31582e-23
-6.83438e-25
-1.5721e-23
-9.53905e-25
-1.78269e-23
-1.25486e-24
-1.95139e-23
-1.58012e-24
-2.08167e-23
-1.92437e-24
-2.17666e-23
-2.2818e-24
-2.23927e-23
-2.64385e-24
-2.27223e-23
-3.00919e-24
-2.27767e-23
-3.37418e-24
-2.25808e-23
-3.73263e-24
-2.2154e-23
-4.08031e-24
-2.15143e-23
-4.41487e-24
-2.06795e-23
-4.73332e-24
-1.96666e-23
-5.03289e-24
-1.84915e-23
-5.31109e-24
-1.71694e-23
-5.56571e-24
-1.57151e-23
-5.79484e-24
-1.41429e-23
-5.99677e-24
-1.2467e-23
-6.17008e-24
-1.07014e-23
-6.31354e-24
-8.85974e-24
-6.42623e-24
-6.95582e-24
-6.50743e-24
-5.0034e-24
-6.55669e-24
-3.01619e-24
-6.57371e-24
-1.0081e-24
-6.55841e-24
1.00701e-24
-6.51083e-24
3.01509e-24
-6.43128e-24
5.00232e-24
-6.32017e-24
6.95477e-24
-6.17826e-24
8.85875e-24
-6.00642e-24
1.07004e-23
-5.80586e-24
1.24662e-23
-5.57795e-24
1.41421e-23
-5.32443e-24
1.57143e-23
-5.04717e-24
1.71687e-23
-4.7484e-24
1.84909e-23
-4.43054e-24
1.96661e-23
-4.0964e-24
2.06791e-23
-3.74888e-24
2.1514e-23
-3.39041e-24
2.21538e-23
-3.02508e-24
2.25807e-23
-2.65922e-24
2.27767e-23
-2.29647e-24
2.27225e-23
-1.93796e-24
2.23929e-23
-1.59213e-24
2.17669e-23
-1.26552e-24
2.08173e-23
-9.6343e-25
1.95148e-23
-6.90644e-25
1.78274e-23
-4.5444e-25
1.57216e-23
-2.62636e-25
1.31597e-23
-1.20563e-25
1.01001e-23
-3.13744e-26
6.50163e-24
2.41956e-24
-5.12021e-26
-2.36821e-24
-1.98685e-25
-6.35144e-24
-4.36948e-25
-9.85945e-24
-7.57051e-25
-1.28372e-23
-1.14898e-24
-1.53282e-23
-1.60224e-24
-1.73727e-23
-2.10619e-24
-1.90091e-23
-2.65038e-24
-2.02717e-23
-3.22468e-24
-2.11916e-23
-3.81941e-24
-2.17973e-23
-4.42627e-24
-2.21148e-23
-5.03639e-24
-2.2166e-23
-5.64318e-24
-2.19734e-23
-6.23978e-24
-2.15569e-23
-6.81977e-24
-2.09338e-23
-7.37759e-24
-2.01212e-23
-7.90819e-24
-1.91356e-23
-8.40718e-24
-1.79921e-23
-8.87039e-24
-1.67058e-23
-9.29433e-24
-1.52908e-23
-9.67563e-24
-1.37613e-23
-1.00116e-23
-1.21308e-23
-1.02998e-23
-1.0413e-23
-1.05383e-23
-8.62104e-24
-1.07255e-23
-6.76852e-24
-1.08602e-23
-4.86854e-24
-1.09417e-23
-2.93469e-24
-1.09694e-23
-9.80277e-25
-1.09433e-23
9.80866e-25
-1.08635e-23
2.93529e-24
-1.07304e-23
4.86914e-24
-1.05449e-23
6.7691e-24
-1.03078e-23
8.62158e-24
-1.00211e-23
1.04135e-23
-9.68635e-24
1.21312e-23
-9.30627e-24
1.37617e-23
-8.88341e-24
1.52912e-23
-8.42114e-24
1.67061e-23
-7.9229e-24
1.79923e-23
-7.3929e-24
1.91357e-23
-6.83548e-24
2.01212e-23
-6.25568e-24
2.09337e-23
-5.65903e-24
2.15566e-23
-5.052e-24
2.19731e-23
-4.44136e-24
2.21655e-23
-3.83364e-24
2.21141e-23
-3.2379e-24
2.17965e-23
-2.66267e-24
2.11909e-23
-2.11681e-24
2.02707e-23
-1.61048e-24
1.90077e-23
-1.15605e-24
1.73721e-23
-7.6318e-25
1.53279e-23
-4.40707e-25
1.28362e-23
-1.99673e-25
9.85924e-24
-5.13617e-26
6.35198e-24
2.36815e-24
-7.26177e-26
-2.29509e-24
-2.80978e-25
-6.14198e-24
-6.17135e-25
-9.52215e-24
-1.06816e-24
-1.2385e-23
-1.61974e-24
-1.47755e-23
-2.2568e-24
-1.67346e-23
-2.96424e-24
-1.83006e-23
-3.72729e-24
-1.95077e-23
-4.53183e-24
-2.03861e-23
-5.36467e-24
-2.09635e-23
-6.21371e-24
-2.1265e-23
-7.06726e-24
-2.13117e-23
-7.9156e-24
-2.11244e-23
-8.74927e-24
-2.07225e-23
-9.55969e-24
-2.01228e-23
-1.0339e-23
-1.93413e-23
-1.10803e-23
-1.83937e-23
-1.17772e-23
-1.72947e-23
-1.24242e-23
-1.60584e-23
-1.30162e-23
-1.46985e-23
-1.35487e-23
-1.32285e-23
-1.40178e-23
-1.16614e-23
-1.44201e-23
-1.00104e-23
-1.4753e-23
-8.28801e-24
-1.5014e-23
-6.50728e-24
-1.52018e-23
-4.68066e-24
-1.53151e-23
-2.82126e-24
-1.53535e-23
-9.41843e-25
-1.53167e-23
9.44043e-25
-1.52049e-23
2.82343e-24
-1.50187e-23
4.68277e-24
-1.47591e-23
6.50934e-24
-1.44277e-23
8.28996e-24
-1.40267e-23
1.00122e-23
-1.35588e-23
1.16631e-23
-1.30275e-23
1.32301e-23
-1.24365e-23
1.46998e-23
-1.17904e-23
1.60596e-23
-1.10942e-23
1.72956e-23
-1.03535e-23
1.83944e-23
-9.57451e-24
1.93416e-23
-8.76432e-24
2.01229e-23
-7.93061e-24
2.07222e-23
-7.08204e-24
2.11238e-23
-6.22798e-24
2.13106e-23
-5.37839e-24
2.12637e-23
-4.54457e-24
2.09618e-23
-3.73851e-24
2.0384e-23
-2.97423e-24
1.95055e-23
-2.26618e-24
1.82987e-23
-1.62677e-24
1.67318e-23
-1.0723e-24
1.47724e-23
-6.20364e-25
1.23835e-23
-2.8407e-25
9.52097e-24
-7.38041e-26
6.14148e-24
2.2943e-24
-9.41924e-26
-2.20064e-24
-3.64954e-25
-5.8698e-24
-8.00901e-25
-9.08483e-24
-1.38496e-24
-1.17997e-23
-2.09798e-24
-1.40612e-23
-2.92015e-24
-1.59112e-23
-3.83187e-24
-1.73877e-23
-4.81397e-24
-1.85244e-23
-5.8484e-24
-1.93506e-23
-6.91824e-24
-1.98927e-23
-8.00823e-24
-2.0174e-23
-9.10368e-24
-2.02153e-23
-1.01916e-23
-2.00356e-23
-1.12603e-23
-1.9653e-23
-1.22991e-23
-1.90833e-23
-1.32977e-23
-1.8342e-23
-1.42477e-23
-1.74432e-23
-1.51406e-23
-1.64012e-23
-1.59696e-23
-1.52288e-23
-1.6728e-23
-1.39397e-23
-1.74103e-23
-1.25457e-23
-1.80111e-23
-1.10602e-23
-1.85266e-23
-9.49454e-24
-1.89527e-23
-7.86169e-24
-1.92871e-23
-6.17268e-24
-1.95272e-23
-4.44048e-24
-1.96722e-23
-2.67613e-24
-1.97209e-23
-8.93181e-25
-1.96736e-23
8.96757e-25
-1.953e-23
2.67967e-24
-1.92913e-23
4.44397e-24
-1.89582e-23
6.17604e-24
-1.85335e-23
7.86495e-24
-1.80191e-23
9.49757e-24
-1.74195e-23
1.10631e-23
-1.67381e-23
1.25483e-23
-1.59808e-23
1.3942e-23
-1.51525e-23
1.52307e-23
-1.42603e-23
1.64028e-23
-1.33108e-23
1.74443e-23
-1.23126e-23
1.83428e-23
-1.1274e-23
1.90835e-23
-1.02054e-23
1.96528e-23
-9.11715e-24
2.00347e-23
-8.02143e-24
2.0214e-23
-6.93062e-24
2.01719e-23
-5.86e-24
1.98902e-23
-4.82493e-24
1.93478e-23
-3.84156e-24
1.8521e-23
-2.92736e-24
1.73834e-23
-2.10428e-24
1.59075e-23
-1.39128e-24
1.40583e-23
-8.04745e-25
1.17955e-23
-3.65699e-25
9.08162e-24
-9.42279e-26
5.86844e-24
2.2e-24
-1.16815e-25
-2.08322e-24
-4.51513e-25
-5.53358e-24
-9.8979e-25
-8.54499e-24
-1.70921e-24
-1.10787e-23
-2.58588e-24
-1.31831e-23
-3.59489e-24
-1.49008e-23
-4.71169e-24
-1.62695e-23
-5.91295e-24
-1.73218e-23
-7.17655e-24
-1.80857e-23
-8.48217e-24
-1.85858e-23
-9.81104e-24
-1.8844e-23
-1.1146e-23
-1.88793e-23
-1.2471e-23
-1.87095e-23
-1.37723e-23
-1.83508e-23
-1.50365e-23
-1.78182e-23
-1.6252e-23
-1.71257e-23
-1.74078e-23
-1.62866e-23
-1.84946e-23
-1.53138e-23
-1.95032e-23
-1.42196e-23
-2.04262e-23
-1.30162e-23
-2.12562e-23
-1.17152e-23
-2.19876e-23
-1.03285e-23
-2.26146e-23
-8.86721e-24
-2.31332e-23
-7.34282e-24
-2.35395e-23
-5.76613e-24
-2.38315e-23
-4.14834e-24
-2.40073e-23
-2.50027e-24
-2.40666e-23
-8.33964e-25
-2.40086e-23
8.387e-25
-2.3834e-23
2.50494e-24
-2.35431e-23
4.15295e-24
-2.31379e-23
5.77057e-24
-2.26204e-23
7.34712e-24
-2.19944e-23
8.8712e-24
-2.1264e-23
1.03323e-23
-2.04349e-23
1.17186e-23
-1.95127e-23
1.30193e-23
-1.85048e-23
1.42221e-23
-1.74186e-23
1.5316e-23
-1.62633e-23
1.62881e-23
-1.50481e-23
1.71268e-23
-1.37841e-23
1.78185e-23
-1.24829e-23
1.83507e-23
-1.11577e-23
1.87084e-23
-9.8224e-24
1.88776e-23
-8.49315e-24
1.88415e-23
-7.18701e-24
1.85829e-23
-5.92206e-24
1.80816e-23
-4.71986e-24
1.73175e-23
-3.60309e-24
1.62653e-23
-2.59252e-24
1.48956e-23
-1.71253e-24
1.31769e-23
-9.92616e-25
1.10745e-23
-4.55013e-25
8.54181e-24
-1.18612e-25
5.53143e-24
2.08132e-24
-1.40309e-25
-1.94249e-24
-5.41371e-25
-5.13073e-24
-1.18501e-24
-7.89959e-24
-2.04321e-24
-1.02188e-23
-3.08621e-24
-1.21384e-23
-4.2837e-24
-1.37017e-23
-5.6063e-24
-1.49454e-23
-7.02643e-24
-1.59002e-23
-8.51803e-24
-1.65927e-23
-1.00575e-23
-1.70451e-23
-1.16228e-23
-1.72773e-23
-1.31943e-23
-1.73066e-23
-1.47534e-23
-1.71493e-23
-1.62839e-23
-1.68193e-23
-1.77704e-23
-1.63308e-23
-1.91996e-23
-1.56957e-23
-2.05582e-23
-1.49271e-23
-2.18359e-23
-1.40354e-23
-2.30214e-23
-1.30334e-23
-2.41067e-23
-1.19303e-23
-2.50824e-23
-1.0739e-23
-2.59426e-23
-9.46793e-24
-2.66796e-23
-8.12986e-24
-2.72895e-23
-6.7326e-24
-2.77667e-23
-5.28872e-24
-2.81098e-23
-3.80508e-24
-2.83157e-23
-2.29433e-24
-2.83853e-23
-7.64383e-25
-2.83166e-23
7.69956e-25
-2.81117e-23
2.29989e-24
-2.77694e-23
3.81043e-24
-2.72932e-23
5.29403e-24
-2.6684e-23
6.73754e-24
-2.59479e-23
8.13472e-24
-2.50884e-23
9.47222e-24
-2.41136e-23
1.07432e-23
-2.30287e-23
1.19337e-23
-2.1844e-23
1.30366e-23
-2.05666e-23
1.40377e-23
-1.92085e-23
1.49292e-23
-1.77794e-23
1.56967e-23
-1.62934e-23
1.63315e-23
-1.47626e-23
1.68188e-23
-1.32037e-23
1.71484e-23
-1.16319e-23
1.73046e-23
-1.00664e-23
1.72748e-23
-8.52611e-24
1.70412e-23
-7.03465e-24
1.65888e-23
-5.61376e-24
1.58952e-23
-4.2892e-24
1.49392e-23
-3.09082e-24
1.36957e-23
-2.04882e-24
1.21334e-23
-1.18891e-24
1.02129e-23
-5.41906e-25
7.89404e-24
-1.39681e-25
5.12752e-24
1.94156e-24
-1.64737e-25
-1.77707e-24
-6.35677e-25
-4.6579e-24
-1.38863e-24
-7.14472e-24
-2.38951e-24
-9.21603e-24
-3.60165e-24
-1.09245e-23
-4.98939e-24
-1.23122e-23
-6.51833e-24
-1.34147e-23
-8.15632e-24
-1.42606e-23
-9.87422e-24
-1.48733e-23
-1.16447e-23
-1.52731e-23
-1.34436e-23
-1.54771e-23
-1.52478e-23
-1.5501e-23
-1.70375e-23
-1.53584e-23
-1.87933e-23
-1.50623e-23
-2.04987e-23
-1.46244e-23
-2.21374e-23
-1.4056e-23