/*--------------------------------*- C++ -*----------------------------------*\
| =========                 |                                                 |
| \\      /  F ield         | OpenFOAM: The Open Source CFD Toolbox           |
|  \\    /   O peration     | Version:  5.0                                   |
|   \\  /    A nd           | Web:      www.OpenFOAM.org                      |
|    \\/     M anipulation  |                                                 |
\*---------------------------------------------------------------------------*/
FoamFile
{
    version     2.0;
    format      ascii;
    class       surfaceScalarField;
    location    "354";
    object      phi;
}
// * * * * * * * * * * * * * * * * * * * * * * * * * * * * * * * * * * * * * //

dimensions      [0 3 -1 0 0 0 0];

internalField   nonuniform List<scalar> 
3052
(
7.73766e-24
-1.17354e-23
3.17572e-23
-2.40931e-23
6.80503e-23
-3.63588e-23
1.12667e-22
-4.46734e-23
1.64391e-22
-5.17761e-23
2.22831e-22
-5.84849e-23
2.85979e-22
-6.31916e-23
3.52803e-22
-6.68652e-23
4.22481e-22
-6.97184e-23
4.93973e-22
-7.15308e-23
5.66348e-22
-7.24118e-23
6.38827e-22
-7.25141e-23
7.10666e-22
-7.18726e-23
7.81129e-22
-7.04956e-23
8.49564e-22
-6.84654e-23
9.15367e-22
-6.58328e-23
9.77969e-22
-6.26297e-23
1.03686e-21
-5.89162e-23
1.09157e-21
-5.47326e-23
1.14168e-21
-5.01341e-23
1.18681e-21
-4.51531e-23
1.22665e-21
-3.98494e-23
1.26089e-21
-3.4256e-23
1.28919e-21
-2.8309e-23
1.31152e-21
-2.23442e-23
1.32788e-21
-1.63716e-23
1.33782e-21
-9.93838e-24
1.34114e-21
-3.32011e-24
1.33791e-21
3.23256e-24
1.32808e-21
9.83795e-24
1.31181e-21
1.62805e-23
1.28957e-21
2.2258e-23
1.26135e-21
2.82379e-23
1.22719e-21
3.41792e-23
1.18744e-21
3.9777e-23
1.14239e-21
4.50709e-23
1.09234e-21
5.00777e-23
1.03771e-21
5.46641e-23
9.78877e-22
5.88653e-23
9.16324e-22
6.25852e-23
8.50564e-22
6.57921e-23
7.8218e-22
6.84171e-23
7.11745e-22
7.04684e-23
6.3994e-22
7.18395e-23
5.67465e-22
7.25118e-23
4.95096e-22
7.24074e-23
4.23645e-22
7.14898e-23
3.54007e-22
6.96798e-23
2.87107e-22
6.6945e-23
2.23996e-22
6.31502e-23
1.65821e-22
5.82198e-23
1.13797e-22
5.2074e-23
6.92598e-23
4.45811e-23
3.37828e-23
3.55273e-23
1.0122e-23
2.36999e-23
1.01276e-23
7.7474e-24
-1.95531e-23
2.92092e-23
-4.57617e-23
6.07498e-23
-6.80811e-23
1.01787e-22
-8.58738e-23
1.50525e-22
-1.0066e-22
2.04461e-22
-1.12558e-22
2.63133e-22
-1.21995e-22
3.25519e-22
-1.29375e-22
3.90384e-22
-1.34703e-22
4.56907e-22
-1.38169e-22
5.24336e-22
-1.39951e-22
5.91866e-22
-1.40148e-22
6.58747e-22
-1.38854e-22
7.24347e-22
-1.36191e-22
7.88058e-22
-1.32267e-22
8.49299e-22
-1.2716e-22
9.07557e-22
-1.20968e-22
9.62354e-22
-1.13787e-22
1.01325e-21
-1.057e-22
1.05986e-21
-9.67953e-23
1.10181e-21
-8.71603e-23
1.1388e-21
-7.68867e-23
1.17056e-21
-6.60544e-23
1.19698e-21
-5.47568e-23
1.21791e-21
-4.33033e-23
1.23308e-21
-3.15558e-23
1.24236e-21
-1.92157e-23
1.24552e-21
-6.47635e-24
1.24245e-21
6.31473e-24
1.23326e-21
1.90624e-23
1.21816e-21
3.14181e-23
1.1973e-21
4.31652e-23
1.17098e-21
5.4622e-23
1.1393e-21
6.59221e-23
1.10238e-21
7.67709e-23
1.06049e-21
8.70431e-23
1.01396e-21
9.66926e-23
9.63122e-22
1.05598e-22
9.08383e-22
1.13698e-22
8.50181e-22
1.20883e-22
7.88984e-22
1.27088e-22
7.25301e-22
1.32202e-22
6.59728e-22
1.36146e-22
5.92868e-22
1.38809e-22
5.25385e-22
1.4011e-22
4.57982e-22
1.39926e-22
3.91439e-22
1.38159e-22
3.26578e-22
1.34673e-22
2.6431e-22
1.29337e-22
2.05621e-22
1.21983e-22
1.51517e-22
1.12468e-22
1.03229e-22
1.00494e-22
6.22503e-23
8.57151e-23
3.02327e-23
6.76662e-23
8.62843e-24
4.54406e-23
1.87628e-23
6.10215e-24
-2.5719e-23
2.50558e-23
-6.48553e-23
5.39638e-23
-9.71167e-23
9.1484e-23
-1.23511e-22
1.35627e-22
-1.44916e-22
1.85523e-22
-1.62561e-22
2.39852e-22
-1.76424e-22
2.97484e-22
-1.87104e-22
3.57553e-22
-1.94863e-22
4.19228e-22
-1.99929e-22
4.81696e-22
-2.025e-22
5.44229e-22
-2.02759e-22
6.06198e-22
-2.00897e-22
6.66977e-22
-1.97039e-22
7.2598e-22
-1.91336e-22
7.82693e-22
-1.83933e-22
8.36641e-22
-1.74971e-22
8.87368e-22
-1.64564e-22
9.34481e-22
-1.52857e-22
9.77617e-22
-1.39971e-22
1.01646e-21
-1.26036e-22
1.05072e-21
-1.11171e-22
1.08016e-21
-9.5521e-23
1.10462e-21
-7.9234e-23
1.12382e-21
-6.25122e-23
1.13756e-21
-4.52989e-23
1.14585e-21
-2.75079e-23
1.14866e-21
-9.27932e-24
1.14592e-21
9.07266e-24
1.1377e-21
2.73019e-23
1.12404e-21
4.51018e-23
1.10491e-21
6.23244e-23
1.08052e-21
7.90582e-23
1.05114e-21
9.53478e-23
1.01695e-21
1.11006e-22
9.7817e-22
1.25879e-22
9.35093e-22
1.39828e-22
8.8803e-22
1.52724e-22
8.37352e-22
1.64444e-22
7.83443e-22
1.74863e-22
7.26766e-22
1.83839e-22
6.67793e-22
1.91253e-22
6.07052e-22
1.96969e-22
5.45099e-22
2.00848e-22
4.82569e-22
2.0273e-22
4.20116e-22
2.02477e-22
3.58463e-22
1.99909e-22
2.98396e-22
1.94841e-22
2.40759e-22
1.87094e-22
1.86436e-22
1.7641e-22
1.36572e-22
1.62441e-22
9.22947e-23
1.44903e-22
5.48092e-23
1.233e-22
2.57496e-23
9.68818e-23
6.90083e-24
6.43641e-23
2.56693e-23
5.77581e-24
-3.15227e-23
2.21901e-23
-8.13534e-23
4.77873e-23
-1.22794e-22
8.14486e-23
-1.57253e-22
1.21821e-22
-1.85366e-22
1.67273e-22
-2.08088e-22
2.16956e-22
-2.26178e-22
2.69849e-22
-2.40064e-22
3.25023e-22
-2.50099e-22
3.81692e-22
-2.56656e-22
4.39144e-22
-2.60009e-22
4.96693e-22
-2.6036e-22
5.53696e-22
-2.57948e-22
6.09598e-22
-2.52987e-22
6.63877e-22
-2.45656e-22
7.16047e-22
-2.3614e-22
7.65656e-22
-2.24612e-22
8.1231e-22
-2.11246e-22
8.55634e-22
-1.96206e-22
8.95298e-22
-1.79656e-22
9.31004e-22
-1.61759e-22
9.62502e-22
-1.42683e-22
9.89564e-22
-1.22592e-22
1.01199e-21
-1.0166e-22
1.02952e-21
-8.00517e-23
1.04205e-21
-5.78214e-23
1.04956e-21
-3.5012e-23
1.05208e-21
-1.17984e-23
1.04962e-21
1.15427e-23
1.04217e-21
3.4766e-23
1.0297e-21
5.75843e-23
1.01222e-21
7.98235e-23
9.89863e-22
1.01435e-22
9.62853e-22
1.22381e-22
9.31404e-22
1.42481e-22
8.95739e-22
1.61574e-22
8.56123e-22
1.79479e-22
8.12838e-22
1.96047e-22
7.66224e-22
2.11099e-22
7.16652e-22
2.24482e-22
6.64515e-22
2.36028e-22
6.10256e-22
2.45567e-22
5.5437e-22
2.52914e-22
4.97382e-22
2.57899e-22
4.39855e-22
2.60325e-22
3.82414e-22
2.59986e-22
3.25736e-22
2.56664e-22
2.70538e-22
2.50125e-22
2.17643e-22
2.40064e-22
1.6798e-22
2.26168e-22
1.2242e-22
2.08103e-22
8.20424e-23
1.85356e-22
4.83202e-23
1.57133e-22
2.25323e-23
1.22735e-22
6.04736e-24
8.09576e-23
3.17213e-23
5.31954e-24
-3.68657e-23
1.93412e-23
-9.542e-23
4.23522e-23
-1.45855e-22
7.2369e-23
-1.87321e-22
1.08498e-22
-2.21548e-22
1.49576e-22
-2.4922e-22
1.94591e-22
-2.71245e-22
2.42594e-22
-2.88115e-22
2.92775e-22
-3.00326e-22
3.44393e-22
-3.08316e-22
3.96722e-22
-3.12377e-22
4.49152e-22
-3.12827e-22
5.01122e-22
-3.09951e-22
5.52095e-22
-3.03989e-22
6.01582e-22
-2.95169e-22
6.49144e-22
-2.83724e-22
6.94371e-22
-2.69859e-22
7.36895e-22
-2.53786e-22
7.76378e-22
-2.35702e-22
8.12521e-22
-2.1581e-22
8.45054e-22
-1.943e-22
8.73739e-22
-1.71374e-22
8.98362e-22
-1.47218e-22
9.18734e-22
-1.22032e-22
9.34673e-22
-9.59878e-23
9.46079e-22
-6.92219e-23
9.52925e-22
-4.1852e-23
9.55224e-22
-1.40898e-23
9.52967e-22
1.38083e-23
9.46167e-22
4.15744e-23
9.34811e-22
6.89494e-23
9.18917e-22
9.57267e-23
8.98582e-22
1.21781e-22
8.73998e-22
1.46978e-22
8.45351e-22
1.71143e-22
8.12857e-22
1.94084e-22
7.76746e-22
2.1561e-22
7.37297e-22
2.35519e-22
6.948e-22
2.53624e-22
6.49596e-22
2.69719e-22
6.02057e-22
2.83605e-22
5.52595e-22
2.95071e-22
5.01638e-22
3.03917e-22
4.49681e-22
3.09906e-22
3.9725e-22
3.12809e-22
3.44918e-22
3.12378e-22
2.93304e-22
3.08338e-22
2.43125e-22
3.00364e-22
1.9511e-22
2.88158e-22
1.50025e-22
2.71326e-22
1.08899e-22
2.49293e-22
7.28067e-23
2.21533e-22
4.25743e-23
1.87423e-22
1.95663e-23
1.45864e-22
5.03237e-24
9.55265e-23
3.67571e-23
4.31704e-24
-4.1186e-23
1.70241e-23
-1.08158e-22
3.70559e-23
-1.65919e-22
6.36983e-23
-2.14e-22
9.57935e-23
-2.53683e-22
1.32456e-22
-2.85924e-22
1.72729e-22
-3.11557e-22
2.1578e-22
-3.31204e-22
2.60867e-22
-3.4545e-22
3.07287e-22
-3.54769e-22
3.544e-22
-3.59521e-22
4.01641e-22
-3.60095e-22
4.48476e-22
-3.56811e-22
4.94415e-22
-3.4995e-22
5.39025e-22
-3.39798e-22
5.81898e-22
-3.26612e-22
6.22667e-22
-3.10641e-22
6.60994e-22
-2.92125e-22
6.96579e-22
-2.71296e-22
7.29144e-22
-2.48382e-22
7.58451e-22
-2.23612e-22
7.84278e-22
-1.97204e-22
8.06439e-22
-1.6938e-22
8.24761e-22
-1.40354e-22
8.39107e-22
-1.1033e-22
8.4938e-22
-7.94908e-23
8.55557e-22
-4.80222e-23
8.57626e-22
-1.61515e-23
8.55586e-22
1.58551e-23
8.49441e-22
4.7728e-23
8.39195e-22
7.92025e-23
8.24881e-22
1.10048e-22
8.06588e-22
1.40081e-22
7.84457e-22
1.69118e-22
7.58654e-22
1.96956e-22
7.29372e-22
2.23379e-22
6.96828e-22
2.48169e-22
6.61264e-22
2.71102e-22
6.22958e-22
2.91953e-22
5.8221e-22
3.10494e-22
5.39354e-22
3.26491e-22
4.94756e-22
3.39705e-22
4.48826e-22
3.49885e-22
4.02003e-22
3.56771e-22
3.54767e-22
3.6009e-22
3.07651e-22
3.59541e-22
2.61239e-22
3.54801e-22
2.1613e-22
3.45533e-22
1.73037e-22
3.31304e-22
1.32796e-22
3.11628e-22
9.61212e-23
2.86039e-22
6.3851e-23
2.53854e-22
3.72342e-23
2.14112e-22
1.71863e-23
1.65933e-22
4.55904e-24
1.08233e-22
4.1319e-23
3.7928e-24
-4.49926e-23
1.47766e-23
-1.19168e-22
3.22082e-23
-1.83381e-22
5.54486e-23
-2.37273e-22
8.35849e-23
-2.81854e-22
1.15807e-22
-3.18181e-22
1.51311e-22
-3.47098e-22
1.89369e-22
-3.69297e-22
2.29288e-22
-3.85403e-22
2.70425e-22
-3.95937e-22
3.12226e-22
-4.01351e-22
3.54164e-22
-4.0206e-22
3.95754e-22
-3.98423e-22
4.36566e-22
-3.90782e-22
4.76202e-22
-3.79451e-22
5.14297e-22
-3.64723e-22
5.50521e-22
-3.46879e-22
5.84575e-22
-3.2619e-22
6.16189e-22
-3.02918e-22
6.45117e-22
-2.77318e-22
6.71143e-22
-2.49643e-22
6.94073e-22
-2.20139e-22
7.13741e-22
-1.8905e-22
7.29999e-22
-1.56612e-22
7.42731e-22
-1.2306e-22
7.51857e-22
-8.86139e-23
7.57345e-22
-5.35049e-23
7.59183e-22
-1.79831e-23
7.57366e-22
1.76798e-23
7.51896e-22
5.32056e-23
7.42787e-22
8.83207e-23
7.30072e-22
1.22773e-22
7.13829e-22
1.56334e-22
6.94176e-22
1.88783e-22
6.71258e-22
2.19887e-22
6.45244e-22
2.49407e-22
6.16329e-22
2.77101e-22
5.84728e-22
3.02723e-22
5.50686e-22
3.26018e-22
5.14473e-22
3.46733e-22
4.76389e-22
3.64605e-22
4.36764e-22
3.79362e-22
3.95961e-22
3.90723e-22
3.54377e-22
3.98394e-22
3.12447e-22
4.02059e-22
2.70647e-22
4.01386e-22
2.29492e-22
3.96003e-22
1.8958e-22
3.8549e-22
1.51534e-22
3.69406e-22
1.15963e-22
3.47256e-22
8.36964e-23
3.18351e-22
5.56184e-23
2.81984e-22
3.23305e-23
2.37435e-22
1.47435e-23
1.83611e-22
3.77231e-24
1.19212e-22
4.50932e-23
3.31296e-24
-4.83095e-23
1.25958e-23
-1.28484e-22
2.75672e-23
-1.98384e-22
4.75016e-23
-2.57239e-22
7.17448e-23
-3.06129e-22
9.95865e-23
-3.46056e-22
1.30328e-22
-3.77873e-22
1.63338e-22
-4.02341e-22
1.9802e-22
-4.20116e-22
2.33809e-22
-4.31757e-22
2.70208e-22
-4.37776e-22
3.06744e-22
-4.3862e-22
3.42997e-22
-4.34698e-22
3.78583e-22
-4.26388e-22
4.13148e-22
-4.14034e-22
4.46374e-22
-3.97964e-22
4.77969e-22
-3.78488e-22
5.0767e-22
-3.55903e-22
5.35239e-22
-3.30497e-22
5.60464e-22
-3.02551e-22
5.83154e-22
-2.7234e-22
6.03142e-22
-2.40131e-22
6.2028e-22
-2.06191e-22
6.34448e-22
-1.70781e-22
6.45545e-22
-1.34158e-22
6.53509e-22
-9.65748e-23
6.58298e-22
-5.82905e-23
6.59897e-22
-1.95763e-23
6.58303e-22
1.92821e-23
6.53519e-22
5.79982e-23
6.45563e-22
9.62877e-23
6.3447e-22
1.33878e-22
6.20307e-22
1.70511e-22
6.03173e-22
2.05932e-22
5.83191e-22
2.39885e-22
5.60506e-22
2.7211e-22
5.35287e-22
3.0234e-22
5.07724e-22
3.30307e-22
4.78028e-22
3.55737e-22
4.46439e-22
3.78348e-22
4.13219e-22
3.97852e-22
3.78661e-22
4.13951e-22
3.43081e-22
4.26335e-22
3.06832e-22
4.34677e-22
2.70297e-22
4.38632e-22
2.33903e-22
4.37818e-22
1.9812e-22
4.31826e-22
1.63435e-22
4.20221e-22
1.30401e-22
4.02483e-22
9.96825e-23
3.78017e-22
7.18577e-23
3.46224e-22
4.75204e-23
3.06359e-22
2.75661e-23
2.57434e-22
1.26582e-23
1.98514e-22
3.32778e-24
1.28601e-22
4.84227e-23
2.73274e-24
-5.10585e-23
1.05314e-23
-1.3631e-22
2.30774e-23
-2.10958e-22
3.98281e-23
-2.74018e-22
6.02403e-23
-3.2657e-22
8.37202e-23
-3.69565e-22
1.09707e-22
-4.03889e-22
1.3766e-22
-4.30321e-22
1.67059e-22
-4.49541e-22
1.97434e-22
-4.62156e-22
2.28354e-22
-4.68719e-22
2.59411e-22
-4.69698e-22
2.9024e-22
-4.65545e-22
3.2051e-22
-4.56674e-22
3.49919e-22
-4.43458e-22
3.78191e-22
-4.26249e-22
4.05077e-22
-4.05384e-22
4.30349e-22
-3.81185e-22
4.53806e-22
-3.53963e-22
4.75267e-22
-3.24019e-22
4.94568e-22
-2.91646e-22
5.11567e-22
-2.57135e-22
5.26142e-22
-2.20769e-22
5.38191e-22
-1.82832e-22
5.47632e-22
-1.43599e-22
5.54408e-22
-1.03349e-22
5.58484e-22
-6.23628e-23
5.59842e-22
-2.09295e-23
5.58478e-22
2.06537e-23
5.54396e-22
6.20889e-23
5.47616e-22
1.03078e-22
5.38172e-22
1.43334e-22
5.26119e-22
1.82576e-22
5.1154e-22
2.20525e-22
4.94537e-22
2.56903e-22
4.75234e-22
2.9143e-22
4.53771e-22
3.23821e-22
4.30312e-22
3.53786e-22
4.0504e-22
3.81031e-22
3.78156e-22
4.05254e-22
3.49887e-22
4.26145e-22
3.20481e-22
4.43383e-22
2.90214e-22
4.56629e-22
2.59391e-22
4.65529e-22
2.28341e-22
4.69711e-22
1.97429e-22
4.68764e-22
1.67053e-22
4.62238e-22
1.37658e-22
4.49647e-22
1.09725e-22
4.30452e-22
8.37218e-23
4.04061e-22
6.0221e-23
3.69755e-22
3.98659e-23
3.2674e-22
2.31098e-23
2.74211e-22
1.05219e-23
2.1117e-22
2.68854e-24
1.36424e-22
5.11121e-23
2.20569e-24
-5.32667e-23
8.53987e-24
-1.42672e-22
1.87272e-23
-2.2117e-22
3.23587e-23
-2.87672e-22
4.89865e-23
-3.43219e-22
6.81485e-23
-3.88748e-22
8.93954e-23
-4.25157e-22
1.12279e-22
-4.53225e-22
1.36374e-22
-4.73656e-22
1.61292e-22
-4.87093e-22
1.86673e-22
-4.94115e-22
2.12179e-22
-4.95219e-22
2.37507e-22
-4.90887e-22
2.62387e-22
-4.81566e-22
2.86562e-22
-4.67644e-22
3.09805e-22
-4.49502e-22
3.31908e-22
-4.27496e-22
3.52687e-22
-4.01971e-22
3.71972e-22
-3.73253e-22
3.89613e-22
-3.41664e-22
4.05477e-22
-3.07514e-22
4.19449e-22
-2.7111e-22
4.31427e-22
-2.3275e-22
4.41328e-22
-1.92734e-22
4.49086e-22
-1.51357e-22
4.54655e-22
-1.08916e-22
4.58004e-22
-6.57085e-23
4.59119e-22
-2.20393e-23
4.57993e-22
2.17864e-23
4.5463e-22
6.54589e-23
4.49047e-22
1.0867e-22
4.41274e-22
1.51117e-22
4.3136e-22
1.92501e-22
4.1937e-22
2.32527e-22
4.05388e-22
2.70898e-22
3.89513e-22
3.07318e-22
3.71864e-22
3.41485e-22
3.52573e-22
3.73093e-22
3.31791e-22
4.0183e-22
3.09685e-22
4.27378e-22
2.86441e-22
4.49408e-22
2.62267e-22
4.67577e-22
2.37392e-22
4.81524e-22
2.1207e-22
4.90873e-22
1.86568e-22
4.95236e-22
1.61196e-22
4.94161e-22
1.36293e-22
4.87165e-22
1.1221e-22
4.73759e-22
8.93305e-23
4.53359e-22
6.81046e-23
4.25308e-22
4.89729e-23
3.88913e-22
3.23227e-23
3.43417e-22
1.86968e-23
2.87859e-22
8.54728e-24
2.21298e-22
2.23561e-24
1.42779e-22
5.33485e-23
1.70959e-24
-5.49894e-23
6.60698e-24
-1.47583e-22
1.44831e-23
-2.29061e-22
2.50404e-23
-2.98244e-22
3.79369e-23
-3.5613e-22
5.28262e-23
-4.03651e-22
6.93483e-23
-4.41692e-22
8.71562e-23
-4.71046e-22
1.05925e-22
-4.92437e-22
1.25349e-22
-5.06529e-22
1.45146e-22
-5.13922e-22
1.65044e-22
-5.15126e-22
1.84813e-22
-5.10664e-22
2.04238e-22
-5.00998e-22
2.23117e-22
-4.8653e-22
2.41268e-22
-4.67658e-22
2.58529e-22
-4.44761e-22
2.74755e-22
-4.182e-22
2.89814e-22
-3.88315e-22
3.03588e-22
-3.55441e-22
3.15976e-22
-3.19902e-22
3.26881e-22
-2.82016e-22
3.36231e-22
-2.42099e-22
3.4396e-22
-2.00462e-22
3.50017e-22
-1.57413e-22
3.54365e-22
-1.13261e-22
3.56979e-22
-6.83182e-23
3.57842e-22
-2.28987e-23
3.56954e-22
2.26799e-23
3.5432e-22
6.80988e-23
3.49953e-22
1.13044e-22
3.43877e-22
1.57201e-22
3.36129e-22
2.00257e-22
3.2676e-22
2.41904e-22
3.15836e-22
2.81832e-22
3.03435e-22
3.1973e-22
2.89648e-22
3.55283e-22
2.74579e-22
3.88174e-22
2.58345e-22
4.18076e-22
2.41078e-22
4.44658e-22
2.22924e-22
4.67575e-22
2.04046e-22
4.8647e-22
1.84623e-22
5.00962e-22
1.64859e-22
5.10653e-22
1.44971e-22
5.1514e-22
1.25188e-22
5.13961e-22
1.05777e-22
5.06597e-22
8.7021e-23
4.92531e-22
6.9241e-23
4.71154e-22
5.27472e-23
4.41826e-22
3.78613e-23
4.03814e-22
2.49942e-23
3.56287e-22
1.44718e-23
2.9839e-22
6.60073e-24
2.29219e-22
1.69219e-24
1.47664e-22
5.50408e-23
1.21655e-24
-5.62026e-23
4.70324e-24
-1.5108e-22
1.03198e-23
-2.34685e-22
1.78507e-23
-3.05782e-22
2.70563e-23
-3.65342e-22
3.76881e-23
-4.14288e-22
4.94927e-23
-4.53503e-22
6.22293e-23
-4.83789e-22
7.56647e-23
-5.05878e-22
8.95678e-23
-5.20437e-22
1.03746e-22
-5.28104e-22
1.17995e-22
-5.29379e-22
1.32162e-22
-5.24835e-22
1.46084e-22
-5.14923e-22
1.59615e-22
-5.00063e-22
1.72622e-22
-4.80667e-22
1.84992e-22
-4.57133e-22
1.9662e-22
-4.29827e-22
2.07411e-22
-3.99106e-22
2.1728e-22
-3.65309e-22
2.26154e-22
-3.28775e-22
2.33967e-22
-2.89829e-22
2.40666e-22
-2.48796e-22
2.46201e-22
-2.05995e-22
2.50538e-22
-1.61746e-22
2.53648e-22
-1.16368e-22
2.55516e-22
-7.01825e-23
2.56131e-22
-2.35101e-23
2.5549e-22
2.33249e-23
2.53594e-22
6.99992e-23
2.50454e-22
1.16188e-22
2.46091e-22
1.61569e-22
2.40531e-22
2.05823e-22
2.33811e-22
2.4863e-22
2.25976e-22
2.89674e-22
2.17083e-22
3.2863e-22
2.07196e-22
3.65177e-22
1.96391e-22
3.98986e-22
1.84752e-22
4.29723e-22
1.72374e-22
4.57045e-22
1.59362e-22
4.80597e-22
1.45831e-22
5.00011e-22
1.31911e-22
5.14891e-22
1.17752e-22
5.24822e-22
1.03514e-22
5.29389e-22
8.93484e-23
5.28138e-22
7.54669e-23
5.20487e-22
6.2061e-23
5.05949e-22
4.93397e-23
4.83889e-22
3.75519e-23
4.53616e-22
2.69714e-23
4.14401e-22
1.78069e-23
3.65467e-22
1.02771e-23
3.05923e-22
4.66755e-24
2.34792e-22
1.20106e-24
1.51161e-22
5.62419e-23
7.30107e-25
-5.69399e-23
2.83223e-24
-1.53178e-22
6.21338e-24
-2.38065e-22
1.07419e-23
-3.10309e-22
1.62784e-23
-3.70876e-22
2.26713e-23
-4.20679e-22
2.97714e-23
-4.60601e-22
3.74334e-23
-4.91449e-22
4.55308e-23
-5.13974e-22
5.39287e-23
-5.28833e-22
6.24287e-23
-5.36603e-22
7.09961e-23
-5.37945e-22
7.95478e-23
-5.33385e-22
8.79403e-23
-5.23314e-22
9.60763e-23
-5.08197e-22
1.039e-22
-4.88488e-22
1.11341e-22
-4.64573e-22
1.18337e-22
-4.36821e-22
1.24829e-22
-4.05595e-22
1.30767e-22
-3.71245e-22
1.36104e-22
-3.3411e-22
1.40803e-22
-2.94524e-22
1.44828e-22
-2.52817e-22
1.48154e-22
-2.09316e-22
1.50759e-22
-1.64346e-22
1.52626e-22
-1.18231e-22
1.53743e-22
-7.12965e-23
1.54105e-22
-2.38689e-23
1.53709e-22
2.37229e-23
1.52559e-22
7.11512e-23
1.50662e-22
1.18088e-22
1.48028e-22
1.64206e-22
1.44672e-22
2.09181e-22
1.40619e-22
2.52687e-22
1.35895e-22
2.94401e-22
1.30534e-22
3.33994e-22
1.24577e-22
3.71139e-22
1.18068e-22
4.055e-22
1.11058e-22
4.36737e-22
1.03607e-22
4.645e-22
9.57778e-23
4.8843e-22
8.764e-23
5.08153e-22
7.92509e-23
5.23285e-22
7.0706e-23
5.33372e-22
6.215e-23
5.37948e-22
5.36717e-23
5.3662e-22
4.52955e-23
5.28869e-22
3.72156e-23
5.14029e-22
2.95917e-23
4.91509e-22
2.25458e-23
4.6067e-22
1.61623e-23
4.20784e-22
1.06335e-23
3.70979e-22
6.16728e-24
3.10387e-22
2.84407e-24
2.38147e-22
7.42173e-25
1.53228e-22
5.69834e-23
2.55963e-25
-5.71866e-23
9.76209e-25
-1.53891e-22
2.13512e-24
-2.39214e-22
3.68078e-24
-3.11844e-22
5.56195e-24
-3.72748e-22
7.73015e-24
-4.22838e-22
1.01318e-23
-4.62993e-22
1.2711e-23
-4.94019e-22
1.54091e-23
-5.16663e-22
1.82076e-23
-5.31624e-22
2.11169e-23
-5.39505e-22
2.41355e-23
-5.40957e-22
2.70269e-23
-5.36269e-22
2.97863e-23
-5.26067e-22
3.24949e-23
-5.10899e-22
3.51167e-23
-4.91104e-22
3.76115e-23
-4.67062e-22
3.99562e-23
-4.39161e-22
4.21313e-23
-4.07765e-22
4.41198e-23
-3.73228e-22
4.59052e-23
-3.3589e-22
4.7475e-23
-2.96089e-22
4.88189e-23
-2.54155e-22
4.99279e-23
-2.1042e-22
5.07925e-23
-1.65206e-22
5.14082e-23
-1.18843e-22
5.17712e-23
-7.16565e-23
5.18802e-23
-2.3976e-23
5.17343e-23
2.38702e-23
5.13345e-23
7.15519e-23
5.06836e-23
1.1874e-22
4.97853e-23
1.65105e-22
4.86461e-23
2.10322e-22
4.72721e-23
2.54062e-22
4.56749e-23
2.95999e-22
4.38632e-23
3.35806e-22
4.18532e-23
3.73149e-22
3.96586e-23
4.07694e-22
3.72986e-23
4.39097e-22
3.47923e-23
4.67007e-22
3.21644e-23
4.91058e-22
2.94531e-23
5.10863e-22
2.66973e-23
5.2604e-22
2.3814e-23
5.36253e-22
2.08094e-23
5.40952e-22
1.7917e-23
5.3951e-22
1.51416e-23
5.31638e-22
1.24847e-23
5.16683e-22
9.93336e-24
4.9406e-22
7.5378e-24
4.6305e-22
5.43435e-24
4.22877e-22
3.63163e-24
3.72787e-22
2.07992e-24
3.11922e-22
9.04943e-25
2.39274e-22
2.09109e-25
1.5394e-22
5.71917e-23
-2.21603e-25
-5.69668e-23
-8.70046e-25
-1.5322e-22
-1.9311e-24
-2.38133e-22
-3.36662e-24
-3.1039e-22
-5.13134e-24
-3.70964e-22
-7.18137e-24
-4.2077e-22
-9.46867e-24
-4.60689e-22
-1.19375e-23
-4.91534e-22
-1.4533e-23
-5.14052e-22
-1.72354e-23
-5.28907e-22
-2.00547e-23
-5.36672e-22
-2.29903e-23
-5.38008e-22
-2.58061e-23
-5.33441e-22
-2.84976e-23
-5.23364e-22
-3.11469e-23
-5.0824e-22
-3.37163e-23
-4.88525e-22
-3.61673e-23
-4.64602e-22
-3.84751e-23
-4.36844e-22
-4.06215e-23
-4.05611e-22
-4.25887e-23
-3.71253e-22
-4.43599e-23
-3.34111e-22
-4.59218e-23
-2.94519e-22
-4.72641e-23
-2.52806e-22
-4.83781e-23
-2.09299e-22
-4.92559e-23
-1.64322e-22
-4.98925e-23
-1.18202e-22
-5.02839e-23
-7.12623e-23
-5.04274e-23
-2.38305e-23
-5.03224e-23
2.37663e-23
-4.99694e-23
7.11994e-23
-4.93706e-23
1.18141e-22
-4.85285e-23
1.64263e-22
-4.74479e-23
2.0924e-22
-4.61364e-23
2.52749e-22
-4.46035e-23
2.94464e-22
-4.28594e-23
3.3406e-22
-4.0917e-23
3.71204e-22
-3.87908e-23
4.05565e-22
-3.64986e-23
4.36801e-22
-3.40601e-23
4.64563e-22
-3.14979e-23
4.8849e-22
-2.88511e-23
5.0821e-22
-2.61566e-23
5.23338e-22
-2.33321e-23
5.33421e-22
-2.03823e-23
5.37991e-22
-1.75409e-23
5.36658e-22
-1.48116e-23
5.28902e-22
-1.22017e-23
5.14058e-22
-9.69254e-24
4.9153e-22
-7.32914e-24
4.60682e-22
-5.2646e-24
4.20798e-22
-3.51832e-24
3.71004e-22
-1.9971e-24
3.10388e-22
-8.55391e-25
2.38144e-22
-1.96797e-25
1.53235e-22
5.69935e-23
-7.0792e-25
-5.62438e-23
-2.73085e-24
-1.51171e-22
-6.01246e-24
-2.34823e-22
-1.0433e-23
-3.05941e-22
-1.58566e-23
-3.65514e-22
-2.21386e-23
-4.14461e-22
-2.91294e-23
-4.53672e-22
-3.66855e-23
-4.83953e-22
-4.46831e-23
-5.06032e-22
-5.29873e-23
-5.20581e-22
-6.13993e-23
-5.2824e-22
-6.98881e-23
-5.295e-22
-7.83688e-23
-5.24943e-22
-8.66965e-23
-5.1502e-22
-9.47747e-23
-5.00146e-22
-1.02548e-22
-4.80737e-22
-1.09947e-22
-4.57189e-22
-1.16907e-22
-4.29871e-22
-1.23371e-22
-3.99136e-22
-1.29286e-22
-3.65327e-22
-1.34609e-22
-3.28778e-22
-1.393e-22
-2.89819e-22
-1.43327e-22
-2.48771e-22
-1.46659e-22
-2.05959e-22
-1.49277e-22
-1.61699e-22
-1.51162e-22
-1.16312e-22
-1.52307e-22
-7.01149e-23
-1.52702e-22
-2.34333e-23
-1.52347e-22
2.34123e-23
-1.5124e-22
7.00931e-23
-1.49392e-22
1.16291e-22
-1.46809e-22
1.61679e-22
-1.43513e-22
2.0594e-22
-1.39519e-22
2.48753e-22
-1.3486e-22
2.898e-22
-1.29563e-22
3.28757e-22
-1.23672e-22
3.65307e-22
-1.17229e-22
3.99115e-22
-1.10286e-22
4.2985e-22
-1.02899e-22
4.57167e-22
-9.51345e-23
4.80714e-22
-8.70578e-23
5.00121e-22
-7.87285e-23
5.14995e-22
-7.0238e-23
5.24915e-22
-6.17355e-23
5.29474e-22
-5.3308e-23
5.28215e-22
-4.49806e-23
5.2055e-22
-3.69346e-23
5.05994e-22
-2.93502e-23
4.83933e-22
-2.23659e-23
4.53662e-22
-1.60117e-23
4.14417e-22
-1.04813e-23
3.65466e-22
-6.0791e-24
3.05947e-22
-2.83002e-24
2.34833e-22
-7.62654e-25
1.51167e-22
5.6229e-23
-1.17892e-24
-5.50604e-23
-4.59829e-24
-1.47708e-22
-1.01267e-23
-2.29255e-22
-1.75591e-23
-2.98471e-22
-2.66592e-23
-3.56376e-22
-3.71859e-23
-4.03899e-22
-4.88915e-23
-4.41933e-22
-6.15335e-23
-4.7128e-22
-7.48755e-23
-4.9266e-22
-8.86941e-23
-5.06735e-22
-1.02793e-22
-5.14114e-22
-1.1697e-22
-5.153e-22
-1.31068e-22
-5.10821e-22
-1.44932e-22
-5.01135e-22
-1.58407e-22
-4.8665e-22
-1.71369e-22
-4.67757e-22
-1.83697e-22
-4.44844e-22
-1.95293e-22
-4.1826e-22
-2.06055e-22
-3.88358e-22
-2.15907e-22
-3.55463e-22
-2.24766e-22
-3.19907e-22
-2.32573e-22
-2.82001e-22
-2.39267e-22
-2.42068e-22
-2.4481e-22
-2.0041e-22
-2.49157e-22
-1.57345e-22
-2.5229e-22
-1.13175e-22
-2.5418e-22
-6.82205e-23
-2.54826e-22
-2.27859e-23
-2.54216e-22
2.28041e-23
-2.52365e-22
6.82402e-23
-2.49271e-22
1.13196e-22
-2.44961e-22
1.57365e-22
-2.39452e-22
2.00428e-22
-2.32789e-22
2.42084e-22
-2.2501e-22
2.82016e-22
-2.16179e-22
3.19919e-22
-2.06352e-22
3.55472e-22
-1.95611e-22
3.88362e-22
-1.84031e-22
4.18259e-22
-1.71717e-22
4.44837e-22
-1.58762e-22
4.67745e-22
-1.45291e-22
4.86631e-22
-1.31424e-22
5.0111e-22
-1.1732e-22
5.10791e-22
-1.03131e-22
5.15262e-22
-8.90092e-23
5.14064e-22
-7.51645e-23
5.06686e-22
-6.18134e-23
4.92614e-22
-4.91324e-23
4.71209e-22
-3.73335e-23
4.41846e-22
-2.68057e-23
4.03859e-22
-1.77455e-23
3.56345e-22
-1.02131e-23
2.98387e-22
-4.5805e-24
2.29187e-22
-1.15345e-24
1.47679e-22
5.50731e-23
-1.68775e-24
-5.33506e-23
-6.51054e-24
-1.42837e-22
-1.43076e-23
-2.21408e-22
-2.47751e-23
-2.87955e-22
-3.75837e-23
-3.43522e-22
-5.23786e-23
-3.8906e-22
-6.88118e-23
-4.25458e-22
-8.65378e-23
-4.53514e-22
-1.05229e-22
-4.73932e-22
-1.24578e-22
-4.87351e-22
-1.44306e-22
-4.94355e-22
-1.64138e-22
-4.95437e-22
-1.8385e-22
-4.91082e-22
-2.03221e-22
-4.81738e-22
-2.22053e-22
-4.67794e-22
-2.4016e-22
-4.49626e-22
-2.57386e-22
-4.27598e-22
-2.7358e-22
-4.02046e-22
-2.88615e-22
-3.73307e-22
-3.0237e-22
-3.41692e-22
-3.14744e-22
-3.0752e-22
-3.25644e-22
-2.71088e-22
-3.34994e-22
-2.32709e-22
-3.42727e-22
-1.92668e-22
-3.48793e-22
-1.51274e-22
-3.53154e-22
-1.08808e-22
-3.55788e-22
-6.55845e-23
-3.56681e-22
-2.189e-23
-3.55826e-22
2.19484e-23
-3.53228e-22
6.5642e-23
-3.48899e-22
1.08863e-22
-3.42867e-22
1.51329e-22
-3.35166e-22
1.92721e-22
-3.25849e-22
2.32762e-22
-3.14976e-22
2.71135e-22
-3.0263e-22
3.07564e-22
-2.88896e-22
3.41725e-22
-2.73883e-22
3.73336e-22
-2.57704e-22
4.02063e-22
-2.40493e-22
4.27608e-22
-2.22391e-22
4.49622e-22
-2.03565e-22
4.67783e-22
-1.84192e-22
4.81711e-22
-1.64475e-22
4.91046e-22
-1.44629e-22
4.95385e-22
-1.24892e-22
4.94301e-22
-1.05521e-22
4.87277e-22
-8.67824e-23
4.73838e-22
-6.9026e-23
4.53432e-22
-5.26274e-23
4.25393e-22
-3.77547e-23
3.88935e-22
-2.48085e-23
3.43381e-22
-1.43822e-23
2.87897e-22
-6.64128e-24
2.21368e-22
-1.76352e-24
1.42781e-22
5.33068e-23
-2.17559e-24
-5.11626e-23
-8.45256e-24
-1.36497e-22
-1.85651e-23
-2.11235e-22
-3.21264e-23
-2.74337e-22
-4.86846e-23
-3.2691e-22
-6.7778e-23
-3.69916e-22
-8.89564e-23
-4.04232e-22
-1.1177e-22
-4.30655e-22
-1.35803e-22
-4.49857e-22
-1.60658e-22
-4.62456e-22
-1.85985e-22
-4.68991e-22
-2.11436e-22
-4.69952e-22
-2.36718e-22
-4.6577e-22
-2.61547e-22
-4.56879e-22
-2.85687e-22
-4.43629e-22
-3.08889e-22
-4.26399e-22
-3.30968e-22
-4.05498e-22
-3.51712e-22
-3.81281e-22
-3.70983e-22
-3.5402e-22
-3.88599e-22
-3.24058e-22
-4.0446e-22
-2.91647e-22
-4.18415e-22
-2.57121e-22
-4.30401e-22
-2.20716e-22
-4.40295e-22
-1.82764e-22
-4.48074e-22
-1.43491e-22
-4.53645e-22
-1.03231e-22
-4.57023e-22
-6.2206e-23
-4.58144e-22
-2.07661e-23
-4.57053e-22
2.08546e-23
-4.53706e-22
6.22944e-23
-4.48169e-22
1.0332e-22
-4.4042e-22
1.43578e-22
-4.30559e-22
1.82851e-22
-4.18599e-22
2.20796e-22
-4.04675e-22
2.57199e-22
-3.88833e-22
2.91713e-22
-3.71244e-22
3.24119e-22
-3.51987e-22
3.54066e-22
-3.31263e-22
3.81318e-22
-3.09191e-22
4.05517e-22
-2.86004e-22
4.26409e-22
-2.61862e-22
4.43616e-22
-2.37037e-22
4.56855e-22
-2.11745e-22
4.65726e-22
-1.86292e-22
4.69899e-22
-1.6094e-22
4.68911e-22
-1.36067e-22
4.62369e-22
-1.12031e-22
4.49769e-22
-8.91945e-23
4.30534e-22
-6.79088e-23
4.04071e-22
-4.88138e-23
3.69805e-22
-3.23519e-23
3.26834e-22
-1.86732e-23
2.74178e-22
-8.42012e-24
2.11081e-22
-2.13825e-24
1.3643e-22
5.11656e-23
-2.70904e-24
-4.84266e-23
-1.04601e-23
-1.28678e-22
-2.29531e-23
-1.98677e-22
-3.96491e-23
-2.57578e-22
-6.00064e-23
-3.06492e-22
-8.34435e-23
-3.46422e-22
-1.09384e-22
-3.78238e-22
-1.37291e-22
-4.02697e-22
-1.66646e-22
-4.20454e-22
-1.96982e-22
-4.32077e-22
-2.27855e-22
-4.38076e-22
-2.58874e-22
-4.38895e-22
-2.89662e-22
-4.34946e-22
-3.19902e-22
-4.26608e-22
-3.49274e-22
-4.14225e-22
-3.77522e-22
-3.98127e-22
-4.04377e-22
-3.78617e-22
-4.29636e-22
-3.56003e-22
-4.53069e-22
-3.30565e-22
-4.74522e-22
-3.02592e-22
-4.93806e-22
-2.72346e-22
-5.10807e-22
-2.40112e-22
-5.25372e-22
-2.06137e-22
-5.37428e-22
-1.70704e-22
-5.46865e-22
-1.34045e-22
-5.53656e-22
-9.64404e-23
-5.57735e-22
-5.81206e-23
-5.59116e-22
-1.93892e-23
-5.57762e-22
1.95036e-23
-5.5371e-22
5.82342e-23
-5.46946e-22
9.65557e-23
-5.37535e-22
1.34156e-22
-5.25505e-22
1.70816e-22
-5.10964e-22
2.06239e-22
-4.93987e-22
2.40213e-22
-4.74725e-22
2.72431e-22
-4.53293e-22
3.02674e-22
-4.29876e-22
3.30623e-22
-4.04632e-22
3.56057e-22
-3.77788e-22
3.78644e-22
-3.49547e-22
3.98145e-22
-3.20179e-22
4.14215e-22
-2.89942e-22
4.26591e-22
-2.5915e-22
4.34898e-22
-2.2812e-22
4.38835e-22
-1.9724e-22
4.37993e-22
-1.66897e-22
4.31987e-22
-1.37495e-22
4.20313e-22
-1.09563e-22
4.0257e-22
-8.36781e-23
3.78129e-22
-6.02051e-23
3.46256e-22
-3.96626e-23
3.06267e-22
-2.30185e-23
2.57462e-22
-1.06276e-23
1.98605e-22
-2.82478e-24
1.28601e-22
4.8338e-23
-3.25791e-24
-4.51509e-23
-1.25452e-23
-1.19317e-22
-2.74821e-23
-1.83671e-22
-4.74042e-23
-2.37589e-22
-7.16255e-23
-2.82207e-22
-9.9438e-23
-3.18547e-22
-1.30157e-22
-3.47458e-22
-1.6315e-22
-3.69647e-22
-1.97801e-22
-3.85749e-22
-2.33569e-22
-3.96257e-22
-2.69937e-22
-4.01661e-22
-3.06455e-22
-4.02332e-22
-3.42677e-22
-3.98684e-22
-3.78246e-22
-3.91001e-22
-4.12781e-22
-3.79657e-22
-4.45999e-22
-3.64877e-22
-4.77564e-22
-3.47027e-22
-5.07262e-22
-3.2628e-22
-5.34802e-22
-3.03006e-22
-5.60034e-22
-2.77341e-22
-5.82696e-22
-2.4967e-22
-6.02696e-22
-2.20097e-22
-6.19808e-22
-1.89016e-22
-6.33997e-22
-1.56505e-22
-6.45071e-22
-1.22967e-22
-6.53061e-22
-8.84447e-23
-6.57827e-22
-5.33542e-23
-6.59462e-22
-1.77536e-23
-6.57845e-22
1.78833e-23
-6.53102e-22
5.34865e-23
-6.45127e-22
8.857e-23
-6.3408e-22
1.23098e-22
-6.19905e-22
1.56622e-22
-6.02824e-22
1.8914e-22
-5.82832e-22
2.20196e-22
-5.60202e-22
2.49777e-22
-5.34971e-22
2.77415e-22
-5.07461e-22
3.03087e-22
-4.77758e-22
3.26325e-22
-4.4622e-22
3.47078e-22
-4.12991e-22
3.64886e-22
-3.78479e-22
3.79673e-22
-3.4289e-22
3.90969e-22
-3.06684e-22
3.98658e-22
-2.7015e-22
4.02264e-22
-2.33789e-22
4.0159e-22
-1.97984e-22
3.96137e-22
-1.63362e-22
3.85653e-22
-1.30356e-22
3.69504e-22
-9.95489e-23
3.47263e-22
-7.17123e-23
3.18384e-22
-4.76274e-23
2.82099e-22
-2.76208e-23
2.37409e-22
-1.25051e-23
1.8346e-22
-3.17041e-24
1.19202e-22
4.51652e-23
-3.80646e-24
-4.13152e-23
-1.47356e-23
-1.08315e-22
-3.22055e-23
-1.66126e-22
-5.54466e-23
-2.14275e-22
-8.35907e-23
-2.53991e-22
-1.15823e-22
-2.86244e-22
-1.51341e-22
-3.11872e-22
-1.89388e-22
-3.31535e-22
-2.29302e-22
-3.45772e-22
-2.70434e-22
-3.55066e-22
-3.12233e-22
-3.59807e-22
-3.54149e-22
-3.60365e-22
-3.95741e-22
-3.57046e-22
-4.36532e-22
-3.50166e-22
-4.7617e-22
-3.39982e-22
-5.14238e-22
-3.26773e-22
-5.5047e-22
-3.10765e-22