/*--------------------------------*- C++ -*----------------------------------*\
| =========                 |                                                 |
| \\      /  F ield         | OpenFOAM: The Open Source CFD Toolbox           |
|  \\    /   O peration     | Version:  5.0                                   |
|   \\  /    A nd           | Web:      www.OpenFOAM.org                      |
|    \\/     M anipulation  |                                                 |
\*---------------------------------------------------------------------------*/
FoamFile
{
    version     2.0;
    format      ascii;
    class       volScalarField;
    location    "239";
    object      p;
}
// * * * * * * * * * * * * * * * * * * * * * * * * * * * * * * * * * * * * * //

dimensions      [0 2 -2 0 0 0 0];

internalField   nonuniform List<scalar> 
1568
(
2.23429e-14
4.85784e-14
7.66254e-14
8.09717e-14
9.09691e-14
1.04846e-13
1.09694e-13
1.15462e-13
1.21842e-13
1.26958e-13
1.31703e-13
1.367e-13
1.41691e-13
1.46436e-13
1.51127e-13
1.55978e-13
1.6081e-13
1.65805e-13
1.70808e-13
1.76071e-13
1.81316e-13
1.8684e-13
1.92099e-13
1.96235e-13
1.99229e-13
2.03519e-13
2.10059e-13
2.1965e-13
2.29622e-13
2.38716e-13
2.44717e-13
2.48755e-13
2.51657e-13
2.56143e-13
2.61294e-13
2.66829e-13
2.71713e-13
2.77041e-13
2.81854e-13
2.86732e-13
2.91256e-13
2.96023e-13
3.00411e-13
3.05121e-13
3.09682e-13
3.14511e-13
3.19315e-13
3.24483e-13
3.29902e-13
3.35787e-13
3.42238e-13
3.50357e-13
3.60026e-13
3.68969e-13
3.87032e-13
4.0459e-13
4.38229e-14
-3.69219e-14
1.72237e-13
1.08779e-13
5.39683e-14
1.26423e-13
1.20253e-13
1.15113e-13
1.29191e-13
1.36406e-13
1.38523e-13
1.42797e-13
1.48069e-13
1.52163e-13
1.5722e-13
1.62274e-13
1.66738e-13
1.72025e-13
1.76919e-13
1.82111e-13
1.86535e-13
1.92345e-13
1.96887e-13
2.02817e-13
2.07126e-13
2.13724e-13
2.17764e-13
2.23107e-13
2.2427e-13
2.32156e-13
2.36522e-13
2.42795e-13
2.44941e-13
2.51848e-13
2.55408e-13
2.62672e-13
2.65156e-13
2.71858e-13
2.74962e-13
2.80068e-13
2.84127e-13
2.90738e-13
2.94043e-13
2.98854e-13
3.02489e-13
3.0805e-13
3.12303e-13
3.17841e-13
3.22889e-13
3.30437e-13
3.38124e-13
3.44807e-13
3.57776e-13
3.50306e-13
3.89774e-13
3.95822e-13
6.75502e-14
1.13187e-13
1.85433e-14
7.58386e-14
9.47652e-14
1.18207e-13
1.08328e-13
1.17703e-13
1.26668e-13
1.23993e-13
1.34085e-13
1.42628e-13
1.44292e-13
1.48776e-13
1.54162e-13
1.56983e-13
1.61832e-13
1.66396e-13
1.71528e-13
1.75717e-13
1.8098e-13
1.86306e-13
1.93218e-13
1.98313e-13
2.04918e-13
2.0882e-13
2.14488e-13
2.20207e-13
2.27583e-13
2.31767e-13
2.37577e-13
2.44613e-13
2.55378e-13
2.60538e-13
2.6542e-13
2.68987e-13
2.75506e-13
2.78226e-13
2.83296e-13
2.87698e-13
2.89996e-13
2.90625e-13
2.96584e-13
3.00614e-13
3.06116e-13
3.10641e-13
3.15677e-13
3.21196e-13
3.26618e-13
3.3148e-13
3.3678e-13
3.34888e-13
3.6875e-13
3.63904e-13
3.69456e-13
3.83263e-13
7.27233e-14
1.06792e-13
1.26037e-13
9.84145e-14
1.31548e-13
1.39306e-13
1.27209e-13
1.39784e-13
1.53886e-13
1.56386e-13
1.5756e-13
1.60786e-13
1.65918e-13
1.71866e-13
1.74512e-13
1.79526e-13
1.83949e-13
1.87256e-13
1.89999e-13
1.95162e-13
1.98432e-13
2.01733e-13
2.03963e-13
2.07589e-13
2.10217e-13
2.14614e-13
2.18245e-13
2.23318e-13
2.27339e-13
2.3212e-13
2.34849e-13
2.35608e-13
2.35859e-13
2.3793e-13
2.4205e-13
2.45916e-13
2.49773e-13
2.54384e-13
2.57535e-13
2.62687e-13
2.68373e-13
2.74754e-13
2.78647e-13
2.82518e-13
2.8639e-13
2.90756e-13
2.94138e-13
3.00166e-13
3.06685e-13
3.10804e-13
3.22308e-13
3.31133e-13
3.33998e-13
3.29204e-13
3.71423e-13
3.73038e-13
8.30603e-14
6.36786e-14
1.0429e-13
1.07241e-13
1.28408e-13
1.2747e-13
1.29207e-13
1.41403e-13
1.46172e-13
1.49794e-13
1.54267e-13
1.59264e-13
1.63325e-13
1.66486e-13
1.69845e-13
1.74286e-13
1.78316e-13
1.82609e-13
1.86754e-13
1.90742e-13
1.94403e-13
1.98216e-13
2.02211e-13
2.06453e-13
2.1004e-13
2.14281e-13
2.18356e-13
2.218e-13
2.25446e-13
2.29679e-13
2.34241e-13
2.38636e-13
2.42565e-13
2.46438e-13
2.51361e-13
2.5527e-13
2.58293e-13
2.6217e-13
2.65817e-13
2.69077e-13
2.72177e-13
2.75513e-13
2.78687e-13
2.82492e-13
2.86542e-13
2.9097e-13
2.9593e-13
3.00591e-13
3.04024e-13
3.13379e-13
3.20399e-13
3.10477e-13
3.38576e-13
3.54005e-13
3.45221e-13
3.59051e-13
1.01187e-13
1.12539e-13
1.24229e-13
1.32027e-13
1.29629e-13
1.27543e-13
1.41361e-13
1.50896e-13
1.49569e-13
1.52974e-13
1.59253e-13
1.64055e-13
1.67421e-13
1.71451e-13
1.75766e-13
1.78788e-13
1.81595e-13
1.84928e-13
1.88581e-13
1.91587e-13
1.95076e-13
1.99208e-13
2.03116e-13
2.06786e-13
2.10466e-13
2.13875e-13
2.1783e-13
2.21988e-13
2.25922e-13
2.29855e-13
2.33559e-13
2.37528e-13
2.42141e-13
2.46016e-13
2.49051e-13
2.52323e-13
2.55778e-13
2.5936e-13
2.62925e-13
2.6641e-13
2.69625e-13
2.73057e-13
2.76811e-13
2.80118e-13
2.84137e-13
2.88122e-13
2.91276e-13
2.96936e-13
3.02494e-13
3.02287e-13
3.11826e-13
3.24643e-13
3.23277e-13
3.10448e-13
3.45926e-13
3.47763e-13
1.14134e-13
1.2798e-13
1.31641e-13
1.33872e-13
1.39585e-13
1.46941e-13
1.55468e-13
1.59356e-13
1.62114e-13
1.6661e-13
1.71271e-13
1.74295e-13
1.77056e-13
1.80414e-13
1.83681e-13
1.86873e-13
1.90093e-13
1.92998e-13
1.95916e-13
1.99112e-13
2.02249e-13
2.04958e-13
2.07679e-13
2.10594e-13
2.1373e-13
2.16747e-13
2.19867e-13
2.22894e-13
2.26068e-13
2.29086e-13
2.31422e-13
2.33683e-13
2.36518e-13
2.39205e-13
2.41704e-13
2.44545e-13
2.47994e-13
2.50908e-13
2.53773e-13
2.57008e-13
2.60505e-13
2.63864e-13
2.67119e-13
2.70384e-13
2.74047e-13
2.77416e-13
2.80846e-13
2.85686e-13
2.88679e-13
2.94126e-13
3.0348e-13
2.95735e-13
3.13641e-13
3.29952e-13
3.25855e-13
3.32967e-13
1.26346e-13
1.30802e-13
1.3512e-13
1.40922e-13
1.52564e-13
1.57926e-13
1.60314e-13
1.62813e-13
1.67774e-13
1.71352e-13
1.75174e-13
1.78284e-13
1.81336e-13
1.84318e-13
1.87054e-13
1.89945e-13
1.92865e-13
1.95596e-13
1.98304e-13
2.01058e-13
2.03655e-13
2.06349e-13
2.08952e-13
2.1166e-13
2.1434e-13
2.17154e-13
2.19763e-13
2.22434e-13
2.25293e-13
2.28053e-13
2.31124e-13
2.34114e-13
2.36376e-13
2.38905e-13
2.41985e-13
2.44753e-13
2.47196e-13
2.49765e-13
2.52239e-13
2.54866e-13
2.57432e-13
2.59879e-13
2.62444e-13
2.6531e-13
2.68329e-13
2.71275e-13
2.74025e-13
2.78767e-13
2.83183e-13
2.84598e-13
2.91043e-13
2.97959e-13
3.01943e-13
2.91499e-13
3.16617e-13
3.19899e-13
1.40619e-13
1.4513e-13
1.53043e-13
1.57729e-13
1.64517e-13
1.63857e-13
1.67707e-13
1.72225e-13
1.75591e-13
1.79004e-13
1.82007e-13
1.83846e-13
1.8687e-13
1.89918e-13
1.92271e-13
1.94552e-13
1.96789e-13
1.99174e-13
2.01558e-13
2.03696e-13
2.05933e-13
2.08662e-13
2.10981e-13
2.13257e-13
2.15613e-13
2.17955e-13
2.20306e-13
2.2273e-13
2.25129e-13
2.2739e-13
2.29978e-13
2.32539e-13
2.34994e-13
2.37345e-13
2.39735e-13
2.41932e-13
2.44065e-13
2.46271e-13
2.48576e-13
2.5083e-13
2.53071e-13
2.55451e-13
2.57866e-13
2.60171e-13
2.62786e-13
2.65665e-13
2.68522e-13
2.7195e-13
2.74061e-13
2.77823e-13
2.85584e-13
2.79638e-13
2.9116e-13
3.00018e-13
2.99645e-13
3.05037e-13
1.55611e-13
1.61729e-13
1.65765e-13
1.68747e-13
1.74269e-13
1.73221e-13
1.79202e-13
1.83546e-13
1.84376e-13
1.87202e-13
1.90273e-13
1.92243e-13
1.94427e-13
1.96613e-13
1.98385e-13
2.00524e-13
2.02445e-13
2.04256e-13
2.06061e-13
2.08299e-13
2.10005e-13
2.1161e-13
2.13485e-13
2.15462e-13
2.17215e-13
2.19092e-13
2.21162e-13
2.23228e-13
2.25079e-13
2.27003e-13
2.28629e-13
2.30311e-13
2.32111e-13
2.34027e-13
2.35775e-13
2.3744e-13
2.39388e-13
2.41387e-13
2.43256e-13
2.45079e-13
2.47014e-13
2.49083e-13
2.50992e-13
2.53079e-13
2.55484e-13
2.57713e-13
2.59577e-13
2.62938e-13
2.65733e-13
2.66861e-13
2.72454e-13
2.73665e-13
2.8122e-13
2.75417e-13
2.88139e-13
2.91027e-13
1.70216e-13
1.74905e-13
1.75785e-13
1.79985e-13
1.85447e-13
1.84318e-13
1.88947e-13
1.9204e-13
1.9306e-13
1.95114e-13
1.9697e-13
1.99251e-13
2.0089e-13
2.02277e-13
2.03901e-13
2.05585e-13
2.07233e-13
2.08708e-13
2.10153e-13
2.11508e-13
2.13126e-13
2.14391e-13
2.15866e-13
2.17106e-13
2.18523e-13
2.19979e-13
2.21757e-13
2.23345e-13
2.24941e-13
2.26431e-13
2.2766e-13
2.29031e-13
2.30474e-13
2.31855e-13
2.33276e-13
2.34704e-13
2.36148e-13
2.37562e-13
2.38982e-13
2.40441e-13
2.41953e-13
2.43433e-13
2.44892e-13
2.46497e-13
2.4836e-13
2.49891e-13
2.5165e-13
2.54655e-13
2.55686e-13
2.56993e-13
2.64498e-13
2.60614e-13
2.64446e-13
2.69592e-13
2.73847e-13
2.76084e-13
1.85305e-13
1.89327e-13
1.88971e-13
1.9215e-13
1.97107e-13
1.9536e-13
1.98672e-13
2.00685e-13
2.0118e-13
2.03076e-13
2.04744e-13
2.05796e-13
2.06666e-13
2.08123e-13
2.09777e-13
2.10515e-13
2.11418e-13
2.12611e-13
2.13909e-13
2.1465e-13
2.1586e-13
2.17046e-13
2.18277e-13
2.19462e-13
2.20942e-13
2.21941e-13
2.22547e-13
2.22906e-13
2.23735e-13
2.24949e-13
2.26395e-13
2.27704e-13
2.28721e-13
2.29691e-13
2.3072e-13
2.31973e-13
2.3295e-13
2.33916e-13
2.34955e-13
2.36003e-13
2.37015e-13
2.38226e-13
2.39335e-13
2.4042e-13
2.41857e-13
2.42928e-13
2.43935e-13
2.46074e-13
2.47517e-13
2.48332e-13
2.5121e-13
2.4917e-13
2.58264e-13
2.55451e-13
2.57121e-13
2.61083e-13
2.00399e-13
2.0353e-13
2.03065e-13
2.05007e-13
2.08341e-13
2.06076e-13
2.08717e-13
2.1021e-13
2.09989e-13
2.11101e-13
2.13029e-13
2.13593e-13
2.13602e-13
2.14626e-13
2.15397e-13
2.15887e-13
2.16551e-13
2.17292e-13
2.17963e-13
2.18586e-13
2.19061e-13
2.19754e-13
2.20079e-13
2.20334e-13
2.2074e-13
2.21599e-13
2.22738e-13
2.24164e-13
2.25135e-13
2.25351e-13
2.25586e-13
2.26104e-13
2.26711e-13
2.27467e-13
2.28091e-13
2.28432e-13
2.29168e-13
2.29869e-13
2.30467e-13
2.31064e-13
2.31685e-13
2.32393e-13
2.32995e-13
2.33527e-13
2.34421e-13
2.35232e-13
2.3574e-13
2.37857e-13
2.37825e-13
2.36502e-13
2.43832e-13
2.41245e-13
2.38772e-13
2.3874e-13
2.4757e-13
2.46406e-13
2.15732e-13
2.17794e-13
2.15969e-13
2.17559e-13
2.19764e-13
2.16906e-13
2.18777e-13
2.19773e-13
2.19236e-13
2.19602e-13
2.20286e-13
2.20348e-13
2.20497e-13
2.20957e-13
2.2082e-13
2.21138e-13
2.21585e-13
2.21671e-13
2.21711e-13
2.22086e-13
2.22345e-13
2.22617e-13
2.22991e-13
2.23695e-13
2.23902e-13
2.23973e-13
2.23559e-13
2.23211e-13
2.23296e-13
2.23828e-13
2.24221e-13
2.24582e-13
2.24679e-13
2.24839e-13
2.25252e-13
2.25292e-13
2.25633e-13
2.25792e-13
2.2591e-13
2.26219e-13
2.26453e-13
2.26606e-13
2.26781e-13
2.26962e-13
2.27311e-13
2.2768e-13
2.27504e-13
2.28118e-13
2.28552e-13
2.29496e-13
2.29811e-13
2.22693e-13
2.36173e-13
2.33216e-13
2.27763e-13
2.30743e-13
2.30913e-13
2.31963e-13
2.29245e-13
2.29813e-13
2.3149e-13
2.27797e-13
2.28911e-13
2.29217e-13
2.2795e-13
2.27967e-13
2.27613e-13
2.2723e-13
2.27219e-13
2.26835e-13
2.267e-13
2.2654e-13
2.2625e-13
2.25907e-13
2.25807e-13
2.25713e-13
2.25471e-13
2.25152e-13
2.252e-13
2.25333e-13
2.25169e-13
2.24694e-13
2.2427e-13
2.23509e-13
2.23107e-13
2.2325e-13
2.2328e-13
2.2306e-13
2.22885e-13
2.22518e-13
2.22351e-13
2.22352e-13
2.22046e-13
2.21736e-13
2.21621e-13
2.21353e-13
2.21154e-13
2.20965e-13
2.20904e-13
2.20515e-13
2.20387e-13
2.19987e-13
2.19511e-13
2.2033e-13
2.19137e-13
2.16147e-13
2.21405e-13
2.20123e-13
2.15063e-13
2.06034e-13
2.20493e-13
2.16216e-13
2.46474e-13
2.48232e-13
2.42432e-13
2.41877e-13
2.43349e-13
2.38617e-13
2.39082e-13
2.38646e-13
2.36686e-13
2.36273e-13
2.35212e-13
2.34222e-13
2.33914e-13
2.33119e-13
2.32559e-13
2.31862e-13
2.31132e-13
2.30632e-13
2.30024e-13
2.292e-13
2.28534e-13
2.28114e-13
2.27082e-13
2.25873e-13
2.24953e-13
2.24461e-13
2.24662e-13
2.24907e-13
2.24533e-13
2.23542e-13
2.22305e-13
2.21528e-13
2.21088e-13
2.20576e-13
2.19708e-13
2.19154e-13
2.18371e-13
2.17899e-13
2.17332e-13
2.16582e-13
2.15941e-13
2.15382e-13
2.14492e-13
2.13713e-13
2.1338e-13
2.12659e-13
2.11311e-13
2.1053e-13
2.10029e-13
2.10477e-13
2.07619e-13
1.98237e-13
2.1406e-13
2.08522e-13
1.99504e-13
2.00321e-13
2.61452e-13
2.6067e-13
2.55242e-13
2.54571e-13
2.55018e-13
2.49095e-13
2.49116e-13
2.48086e-13
2.45477e-13
2.44388e-13
2.43141e-13
2.41658e-13
2.40495e-13
2.3931e-13
2.38085e-13
2.36897e-13
2.35862e-13
2.34814e-13
2.33715e-13
2.32659e-13
2.31639e-13
2.30672e-13
2.29754e-13
2.29133e-13
2.28308e-13
2.27132e-13
2.25499e-13
2.23839e-13
2.22584e-13
2.21755e-13
2.20935e-13
2.20166e-13
2.19016e-13
2.18006e-13
2.1695e-13
2.16041e-13
2.14947e-13
2.13959e-13
2.12802e-13
2.11831e-13
2.10747e-13
2.0979e-13
2.08477e-13
2.07254e-13
2.06185e-13
2.04873e-13
2.03063e-13
2.03187e-13
2.00552e-13
1.95463e-13
2.00475e-13
1.99279e-13
1.87986e-13
1.77844e-13
1.93545e-13
1.86189e-13
2.76855e-13
2.77126e-13
2.69017e-13
2.66599e-13
2.66748e-13
2.59911e-13
2.59206e-13
2.57564e-13
2.54277e-13
2.52547e-13
2.5096e-13
2.4898e-13
2.47245e-13
2.45581e-13
2.44024e-13
2.425e-13
2.41019e-13
2.39383e-13
2.37972e-13
2.36487e-13
2.35127e-13
2.33374e-13
2.31944e-13
2.30226e-13
2.28845e-13
2.27262e-13
2.26187e-13
2.24578e-13
2.23362e-13
2.21618e-13
2.20304e-13
2.1848e-13
2.17164e-13
2.15413e-13
2.14286e-13
2.12541e-13
2.11342e-13
2.09637e-13
2.0843e-13
2.06678e-13
2.05359e-13
2.03602e-13
2.02269e-13
2.00345e-13
1.98963e-13
1.97234e-13
1.95296e-13
1.92904e-13
1.91526e-13
1.9114e-13
1.86078e-13
1.74289e-13
1.91467e-13
1.85313e-13
1.69044e-13
1.70291e-13
2.91642e-13
2.89139e-13
2.81991e-13
2.78049e-13
2.77978e-13
2.70361e-13
2.68846e-13
2.66663e-13
2.62706e-13
2.60569e-13
2.58357e-13
2.55965e-13
2.5354e-13
2.51723e-13
2.49543e-13
2.47835e-13
2.45554e-13
2.43999e-13
2.41743e-13
2.40225e-13
2.37869e-13
2.3645e-13
2.34123e-13
2.32588e-13
2.30157e-13
2.28769e-13
2.26414e-13
2.2513e-13
2.22713e-13
2.21294e-13
2.18697e-13
2.17285e-13
2.14959e-13
2.13604e-13
2.11182e-13
2.09825e-13
2.07508e-13
2.06146e-13
2.03825e-13
2.02368e-13
2.00035e-13
1.98593e-13
1.96171e-13
1.94242e-13
1.92046e-13
1.89866e-13
1.86777e-13
1.8629e-13
1.82273e-13
1.74765e-13
1.8054e-13
1.78484e-13
1.62221e-13
1.49293e-13
1.65924e-13
1.56809e-13
3.06496e-13
3.04158e-13
2.95486e-13
2.88767e-13
2.8847e-13
2.79781e-13
2.77611e-13
2.74889e-13
2.70494e-13
2.67414e-13
2.64883e-13
2.61879e-13
2.5935e-13
2.56791e-13
2.54383e-13
2.51719e-13
2.49545e-13
2.47168e-13
2.45021e-13
2.42604e-13
2.40442e-13
2.38242e-13
2.35884e-13
2.33724e-13
2.314e-13
2.29293e-13
2.26863e-13
2.24817e-13
2.22255e-13
2.20255e-13
2.17801e-13
2.1603e-13
2.13528e-13
2.11673e-13
2.09049e-13
2.07218e-13
2.04502e-13
2.02749e-13
2.00136e-13
1.98294e-13
1.95555e-13
1.93733e-13
1.90854e-13
1.88854e-13
1.86132e-13
1.84032e-13
1.80558e-13
1.77245e-13
1.73698e-13
1.75388e-13
1.65951e-13
1.48133e-13
1.71688e-13
1.66496e-13
1.40732e-13
1.41002e-13
3.20928e-13
3.16502e-13
3.08149e-13
3.00336e-13
3.00955e-13
2.90811e-13
2.87482e-13
2.84151e-13
2.79475e-13
2.75714e-13
2.73068e-13
2.69056e-13
2.66575e-13
2.62795e-13
2.61282e-13
2.57372e-13
2.56059e-13
2.51558e-13
2.5076e-13
2.46136e-13
2.4564e-13
2.40507e-13
2.4032e-13
2.3505e-13
2.35069e-13
2.29335e-13
2.29604e-13
2.2343e-13
2.23915e-13
2.17843e-13
2.18582e-13
2.12314e-13
2.13142e-13
2.07024e-13
2.08089e-13
2.01685e-13
2.02512e-13
1.96348e-13
1.97072e-13
1.90912e-13
1.91378e-13
1.85386e-13
1.85338e-13
1.79939e-13
1.79916e-13
1.74224e-13
1.72176e-13
1.68634e-13
1.67129e-13
1.53751e-13
1.5774e-13
1.63864e-13
1.40898e-13
1.1541e-13
1.41958e-13
1.28539e-13
3.34848e-13
3.27792e-13
3.21797e-13
3.07669e-13
3.08852e-13
3.00399e-13
2.95419e-13
2.92192e-13
2.86757e-13
2.83564e-13
2.79072e-13
2.7636e-13
2.7224e-13
2.70013e-13
2.65182e-13
2.63116e-13
2.5866e-13
2.57404e-13
2.52326e-13
2.51233e-13
2.45936e-13
2.45222e-13
2.39898e-13
2.39003e-13
2.33563e-13
2.3278e-13
2.2732e-13
2.26628e-13
2.21036e-13
2.20281e-13
2.14322e-13
2.13274e-13
2.07407e-13
2.06247e-13
2.00827e-13
2.00515e-13
1.9573e-13
1.94665e-13
1.89939e-13
1.89114e-13
1.84857e-13
1.83944e-13
1.79356e-13
1.77063e-13
1.72131e-13
1.69522e-13
1.65825e-13
1.6264e-13
1.55691e-13
1.56212e-13
1.52401e-13
1.24057e-13
1.4786e-13
1.46384e-13
1.17706e-13
1.13331e-13
3.48223e-13
3.40302e-13
3.31169e-13
3.19461e-13
3.16811e-13
3.07002e-13
3.0221e-13
2.98181e-13
2.91516e-13
2.88052e-13
2.83297e-13
2.80292e-13
2.74452e-13
2.72709e-13
2.66918e-13
2.66247e-13
2.59391e-13
2.59628e-13
2.52327e-13
2.53429e-13
2.4517e-13
2.47239e-13
2.37848e-13
2.40931e-13
2.30918e-13
2.34855e-13
2.24224e-13
2.28851e-13
2.17393e-13
2.22483e-13
2.10447e-13
2.16034e-13
2.03982e-13
2.10016e-13
1.97501e-13
2.03562e-13
1.90653e-13
1.9705e-13
1.85342e-13
1.9097e-13
1.78845e-13
1.84229e-13
1.72873e-13
1.76881e-13
1.67026e-13
1.70112e-13
1.58332e-13
1.59688e-13
1.51667e-13
1.472e-13
1.36075e-13
1.45111e-13
1.3154e-13
9.92753e-14
1.14275e-13
1.01572e-13
3.61827e-13
3.57611e-13
3.41102e-13
3.36806e-13
3.30678e-13
3.18838e-13
3.16155e-13
3.09743e-13
3.04282e-13
2.98602e-13
2.96388e-13
2.89652e-13
2.88346e-13
2.81609e-13
2.81579e-13
2.7371e-13
2.74759e-13
2.65262e-13
2.67728e-13
2.5676e-13
2.60613e-13
2.48278e-13
2.53069e-13
2.39668e-13
2.45149e-13
2.30784e-13
2.36523e-13
2.20908e-13
2.27597e-13
2.11371e-13
2.18875e-13
2.02952e-13
2.10897e-13
1.95071e-13
2.03062e-13
1.86589e-13
1.94479e-13
1.79344e-13
1.85133e-13
1.7078e-13
1.76925e-13
1.62822e-13
1.67503e-13
1.55234e-13
1.5929e-13
1.47741e-13
1.4901e-13
1.40682e-13
1.40269e-13
1.29849e-13
1.31748e-13
1.12852e-13
1.06605e-13
1.22686e-13
8.86083e-14
8.69599e-14
3.74287e-13
3.6506e-13
3.39973e-13
3.39212e-13
3.34285e-13
3.23549e-13
3.19579e-13
3.14428e-13
3.08619e-13
3.03644e-13
2.99299e-13
2.94256e-13
2.90709e-13
2.85257e-13
2.81475e-13
2.75805e-13
2.73305e-13
2.66999e-13
2.65061e-13
2.58404e-13
2.57061e-13
2.50063e-13
2.49325e-13
2.41197e-13
2.41252e-13
2.32863e-13
2.33464e-13
2.23908e-13
2.24197e-13
2.13441e-13
2.1272e-13
1.99928e-13
1.99221e-13
1.88657e-13
1.91688e-13
1.83101e-13
1.86476e-13
1.75387e-13
1.80425e-13
1.7266e-13
1.76838e-13
1.67188e-13
1.69345e-13
1.5901e-13
1.60385e-13
1.50706e-13
1.52087e-13
1.42896e-13
1.41028e-13
1.29646e-13
1.32111e-13
1.21159e-13
1.15728e-13
1.02083e-13
8.75387e-14
7.59198e-14
3.8691e-13
3.83003e-13
3.66699e-13
3.52342e-13
3.45148e-13
3.31562e-13
3.22856e-13
3.18697e-13
3.10474e-13
3.06688e-13
2.9936e-13
2.9743e-13
2.89394e-13
2.89649e-13
2.80542e-13
2.82454e-13
2.71623e-13
2.75371e-13
2.6221e-13
2.67901e-13
2.52099e-13
2.59262e-13
2.41467e-13
2.51542e-13
2.32324e-13
2.43371e-13
2.21601e-13
2.33162e-13
2.10077e-13
2.24394e-13
2.03369e-13
2.23475e-13
2.03531e-13
2.19716e-13
1.93426e-13
2.07111e-13
1.81479e-13
1.95786e-13
1.72655e-13
1.80731e-13
1.56086e-13
1.68744e-13
1.49081e-13
1.59238e-13
1.419e-13
1.49314e-13
1.31819e-13
1.36733e-13
1.23661e-13
1.23315e-13
1.07819e-13
9.86032e-14
9.66221e-14
8.11241e-14
6.77399e-14
6.32244e-14
3.98091e-13
3.82834e-13
3.70568e-13
3.53166e-13
3.47554e-13
3.40919e-13
3.34716e-13
3.27865e-13
3.2219e-13
3.16919e-13
3.12729e-13
3.07271e-13
3.03041e-13
2.97688e-13
2.94103e-13
2.88289e-13
2.84427e-13
2.78479e-13
2.74745e-13
2.68295e-13
2.64875e-13
2.58374e-13
2.5442e-13
2.46709e-13
2.42501e-13
2.35155e-13
2.32102e-13
2.25486e-13
2.23617e-13
2.16361e-13
2.12614e-13
2.0273e-13
1.97385e-13
1.89152e-13
1.86554e-13
1.79846e-13
1.77675e-13
1.70923e-13
1.67361e-13
1.62733e-13
1.61239e-13
1.55316e-13
1.51336e-13
1.4593e-13
1.42393e-13
1.36873e-13
1.32485e-13
1.27895e-13
1.22488e-13
1.15272e-13
1.09965e-13
1.03346e-13
9.5763e-14
7.76738e-14
6.99586e-14
5.26619e-14
4.06737e-13
3.87385e-13
3.70976e-13
3.5986e-13
3.51078e-13
3.43022e-13
3.36106e-13
3.29925e-13
3.24405e-13
3.19109e-13
3.14204e-13
3.0925e-13
3.04652e-13
2.99757e-13
2.95204e-13
2.90186e-13
2.85591e-13
2.80376e-13
2.75658e-13
2.70145e-13
2.65279e-13
2.59494e-13
2.54803e-13
2.50557e-13
2.48072e-13
2.43491e-13
2.37377e-13
2.27386e-13
2.17821e-13
2.08501e-13
2.03312e-13
1.99275e-13
1.97152e-13
1.92405e-13
1.87954e-13
1.8203e-13
1.7757e-13
1.71911e-13
1.67509e-13
1.62161e-13
1.5796e-13
1.52737e-13
1.48637e-13
1.43666e-13
1.39485e-13
1.3443e-13
1.29897e-13
1.24551e-13
1.19285e-13
1.12969e-13
1.06383e-13
9.85508e-14
8.98838e-14
7.87267e-14
6.27133e-14
4.3452e-14
)
;

boundaryField
{
    top
    {
        type            zeroGradient;
    }
    bottom
    {
        type            zeroGradient;
    }
    rotatingWall
    {
        type            zeroGradient;
    }
    wall
    {
        type            zeroGradient;
    }
    frontAndBack
    {
        type            empty;
    }
}


// ************************************************************************* //
