/*--------------------------------*- C++ -*----------------------------------*\
| =========                 |                                                 |
| \\      /  F ield         | OpenFOAM: The Open Source CFD Toolbox           |
|  \\    /   O peration     | Version:  5.0                                   |
|   \\  /    A nd           | Web:      www.OpenFOAM.org                      |
|    \\/     M anipulation  |                                                 |
\*---------------------------------------------------------------------------*/
FoamFile
{
    version     2.0;
    format      ascii;
    class       surfaceScalarField;
    location    "0.3";
    object      phi;
}
// * * * * * * * * * * * * * * * * * * * * * * * * * * * * * * * * * * * * * //

dimensions      [0 3 -1 0 0 0 0];

internalField   nonuniform List<scalar> 
85
(
0.000100749
3.0397e-14
0.000100749
1.87736e-14
0.000100749
2.29183e-15
0.000100749
1.64155e-14
1.34288e-14
0.000100749
4.91946e-14
0.000100749
3.60542e-14
0.000100749
2.45518e-14
0.000100749
1.39051e-14
2.48058e-14
0.000100749
6.19335e-14
0.000100749
5.2112e-14
0.000100749
5.17549e-14
0.000100749
5.42702e-15
3.51995e-14
0.000100749
6.72577e-14
0.000100749
6.68444e-14
0.000100749
8.54476e-14
0.000100749
-9.95481e-15
4.3678e-14
0.000100749
6.83998e-14
0.000100749
7.90626e-14
0.000100749
1.20936e-13
0.000100749
-2.88325e-14
5.12543e-14
0.000100749
7.05799e-14
0.000100749
8.85086e-14
0.000100749
1.52479e-13
0.000100749
-4.66058e-14
5.95635e-14
0.000100749
7.01562e-14
0.000100749
9.67425e-14
0.000100749
1.85932e-13
0.000100749
-6.71552e-14
6.73057e-14
0.000100749
9.05434e-14
0.000100749
1.00563e-13
0.000100749
1.9365e-13
0.000100749
-6.86278e-14
7.98773e-14
0.000100749
1.09909e-13
0.000100749
1.0471e-13
0.000100749
2.05236e-13
0.000100749
-7.0455e-14
9.0906e-14
0.000100749
0.000100749
0.000100749
0.000100749
)
;

boundaryField
{
    top
    {
        type            calculated;
        value           nonuniform List<scalar> 5(1.7515e-13 1.11892e-13 1.3099e-13 3.70919e-15 1.0658e-13);
    }
    bottom
    {
        type            symmetryPlane;
        value           uniform 0;
    }
    inlet
    {
        type            calculated;
        value           nonuniform List<scalar> 10(-0.000100749 -0.000100749 -0.000100749 -0.000100749 -0.000100749 -0.000100749 -0.000100749 -0.000100749 -0.000100749 -0.000100749);
    }
    outlet
    {
        type            calculated;
        value           nonuniform 0();
    }
    frontAndBack
    {
        type            empty;
        value           nonuniform 0();
    }
    procBoundary0to1
    {
        type            processor;
        value           nonuniform List<scalar> 10(0.000100749 0.000100749 0.000100749 0.000100749 0.000100749 0.000100749 0.000100749 0.000100749 0.000100749 0.000100749);
    }
}


// ************************************************************************* //
