/*--------------------------------*- C++ -*----------------------------------*\
| =========                 |                                                 |
| \\      /  F ield         | OpenFOAM: The Open Source CFD Toolbox           |
|  \\    /   O peration     | Version:  5.0                                   |
|   \\  /    A nd           | Web:      www.OpenFOAM.org                      |
|    \\/     M anipulation  |                                                 |
\*---------------------------------------------------------------------------*/
FoamFile
{
    version     2.0;
    format      ascii;
    class       volScalarField;
    location    "0.3";
    object      shearRate;
}
// * * * * * * * * * * * * * * * * * * * * * * * * * * * * * * * * * * * * * //

dimensions      [0 0 -1 0 0 0 0];

internalField   nonuniform List<scalar> 
50
(
9.76889e-09
1.94673e-08
8.65724e-09
6.80099e-09
1.85656e-08
1.63094e-08
3.36211e-08
9.81678e-09
8.9681e-09
3.1361e-08
1.83027e-08
3.23037e-08
1.02714e-08
1.04266e-08
2.77789e-08
1.93641e-08
2.73092e-08
9.36143e-09
1.07682e-08
2.10798e-08
1.51788e-08
5.11119e-09
5.47425e-09
9.87547e-09
1.89061e-09
1.46877e-08
3.82565e-09
5.77015e-09
1.0299e-08
5.74033e-09
1.27256e-08
5.18688e-08
2.17151e-08
2.13275e-08
5.37863e-08
1.0864e-08
5.3788e-08
2.06094e-08
1.95574e-08
5.96136e-08
1.9293e-08
7.5421e-08
1.91622e-08
1.68312e-08
7.88885e-08
2.32793e-08
7.97303e-08
1.97829e-08
1.56693e-08
7.48396e-08
)
;

boundaryField
{
    top
    {
        type            zeroGradient;
    }
    bottom
    {
        type            symmetryPlane;
    }
    inlet
    {
        type            zeroGradient;
    }
    outlet
    {
        type            zeroGradient;
    }
    frontAndBack
    {
        type            empty;
    }
    procBoundary0to1
    {
        type            processor;
        value           nonuniform List<scalar> 10(1.07766e-08 1.34134e-08 1.51663e-08 1.52574e-08 1.31894e-08 1.36974e-08 2.69428e-08 2.54974e-08 1.99982e-08 1.79022e-08);
    }
}


// ************************************************************************* //
