/*--------------------------------*- C++ -*----------------------------------*\
| =========                 |                                                 |
| \\      /  F ield         | OpenFOAM: The Open Source CFD Toolbox           |
|  \\    /   O peration     | Version:  5.0                                   |
|   \\  /    A nd           | Web:      www.OpenFOAM.org                      |
|    \\/     M anipulation  |                                                 |
\*---------------------------------------------------------------------------*/
FoamFile
{
    version     2.0;
    format      ascii;
    class       volScalarField;
    location    "0.3";
    object      shearRate;
}
// * * * * * * * * * * * * * * * * * * * * * * * * * * * * * * * * * * * * * //

dimensions      [0 0 -1 0 0 0 0];

internalField   nonuniform List<scalar> 
200
(
0.00111586
0.0011034
0.00109835
0.00109682
0.00109665
0.00109654
0.00109657
0.00109654
0.00109656
0.00109655
0.00333606
0.00329764
0.00328876
0.00328448
0.00328404
0.0032837
0.00328379
0.00328371
0.00328377
0.00328373
0.00553778
0.00547461
0.0054609
0.00545397
0.00545331
0.00545273
0.00545289
0.00545275
0.00545286
0.00545279
0.00770705
0.00762069
0.00760252
0.00759315
0.00759233
0.00759153
0.00759177
0.00759156
0.00759172
0.00759162
0.00983094
0.00972353
0.0097016
0.00969012
0.00968921
0.0096882
0.00968853
0.00968825
0.00968846
0.00968833
0.0118969
0.0117711
0.0117463
0.0117331
0.0117322
0.011731
0.0117314
0.011731
0.0117313
0.0117311
0.0138926
0.0137517
0.0137251
0.0137106
0.0137099
0.0137085
0.013709
0.0137086
0.0137089
0.0137087
0.0158063
0.0156543
0.015627
0.0156118
0.0156113
0.0156097
0.0156104
0.0156099
0.0156103
0.01561
0.0176266
0.0174679
0.0174414
0.017426
0.0174259
0.0174241
0.017425
0.0174243
0.0174248
0.0174245
0.0193426
0.0191826
0.0191582
0.0191431
0.0191436
0.0191416
0.0191427
0.0191419
0.0191425
0.0191421
0.0209439
0.0207886
0.0207679
0.0207536
0.0207549
0.0207526
0.020754
0.020753
0.0207537
0.0207532
0.022421
0.022277
0.0222616
0.0222486
0.0222507
0.0222482
0.0222498
0.0222486
0.0222495
0.0222489
0.0237649
0.0236398
0.023631
0.0236197
0.0236228
0.02362
0.023622
0.0236206
0.0236216
0.0236209
0.0249672
0.0248694
0.0248686
0.0248594
0.0248636
0.0248604
0.0248628
0.0248611
0.0248624
0.0248615
0.0260205
0.0259592
0.0259677
0.0259606
0.0259662
0.0259625
0.0259653
0.0259633
0.0259648
0.0259637
0.026918
0.0269036
0.0269222
0.0269173
0.0269243
0.02692
0.0269234
0.0269209
0.0269227
0.0269214
0.0276539
0.0276975
0.027727
0.0277239
0.0277325
0.0277274
0.0277314
0.0277285
0.0277307
0.0277291
0.0282232
0.0283371
0.0283776
0.028376
0.0283863
0.0283802
0.028385
0.0283815
0.0283841
0.0283821
0.0286216
0.0288198
0.0288711
0.0288702
0.0288823
0.0288749
0.0288807
0.0288764
0.0288795
0.0288772
0.0288461
0.0291441
0.0292053
0.0292039
0.029218
0.029209
0.0292159
0.0292108
0.0292145
0.0292117
)
;

boundaryField
{
    top
    {
        type            zeroGradient;
    }
    bottom
    {
        type            symmetryPlane;
    }
    inlet
    {
        type            zeroGradient;
    }
    outlet
    {
        type            zeroGradient;
    }
    frontAndBack
    {
        type            empty;
    }
    procBoundary0to1
    {
        type            processor;
        value           nonuniform List<scalar> 
20
(
0.00109656
0.00328375
0.00545283
0.00759169
0.00968843
0.0117313
0.0137089
0.0156102
0.0174248
0.0191424
0.0207536
0.0222494
0.0236214
0.0248621
0.0259645
0.0269224
0.0277302
0.0283835
0.0288789
0.0292137
)
;
    }
}


// ************************************************************************* //
