/*--------------------------------*- C++ -*----------------------------------*\
| =========                 |                                                 |
| \\      /  F ield         | OpenFOAM: The Open Source CFD Toolbox           |
|  \\    /   O peration     | Version:  5.0                                   |
|   \\  /    A nd           | Web:      www.OpenFOAM.org                      |
|    \\/     M anipulation  |                                                 |
\*---------------------------------------------------------------------------*/
FoamFile
{
    version     2.0;
    format      ascii;
    class       volVectorField;
    location    "0.3";
    object      U;
}
// * * * * * * * * * * * * * * * * * * * * * * * * * * * * * * * * * * * * * //

dimensions      [0 1 -1 0 0 0 0];

internalField   nonuniform List<vector> 
25
(
(1.00881 7.94929e-07 4.51799e-28)
(1.00871 -1.21454e-06 -3.25967e-23)
(1.009 8.95596e-07 -3.263e-23)
(1.00838 -2.07878e-05 -3.25661e-23)
(1.01043 -6.76361e-05 -4.75495e-25)
(0.928102 2.52397e-06 -7.17341e-37)
(0.928012 -4.11159e-06 2.82228e-23)
(0.928277 4.34284e-06 4.25329e-27)
(0.92768 -5.78794e-05 -2.84382e-23)
(0.929053 -0.000140192 -2.82116e-23)
(0.766685 3.81299e-06 -2.76028e-23)
(0.76661 -6.47359e-06 -6.94189e-26)
(0.766832 9.13737e-06 2.82327e-23)
(0.766311 -6.77756e-05 -5.63688e-23)
(0.76713 -6.59531e-05 -5.63203e-23)
(0.524565 3.37265e-06 5.5292e-23)
(0.524514 -5.86012e-06 2.81435e-23)
(0.524671 9.6102e-06 -5.64638e-23)
(0.524293 -4.59784e-05 -2.79448e-23)
(0.52477 8.16136e-06 5.72585e-23)
(0.201751 1.24147e-06 3.97174e-23)
(0.20173 -2.17165e-06 2.01063e-23)
(0.201797 3.741e-06 -6.03581e-23)
(0.201638 -1.46812e-05 -2.00913e-23)
(0.201829 1.01511e-05 4.02454e-23)
)
;

boundaryField
{
    top
    {
        type            fixedValue;
        value           uniform (0 0 0);
    }
    bottom
    {
        type            symmetryPlane;
    }
    inlet
    {
        type            pressureInletVelocity;
        value           nonuniform List<vector> 5((1.0088 -0 -0) (0.928092 -0 -0) (0.766676 -0 -0) (0.524557 -0 -0) (0.201745 -0 -0));
    }
    outlet
    {
        type            inletOutlet;
        inletValue      nonuniform 0();
        value           nonuniform 0();
    }
    frontAndBack
    {
        type            empty;
    }
    procBoundary0to1
    {
        type            processor;
        value           nonuniform List<vector> 5((1.00762 -0.00099961 6.64657e-23) (0.926525 -0.00420793 1.64542e-23) (0.765124 -0.00252206 2.65181e-23) (0.523474 -0.000774583 6.58622e-23) (0.201378 -0.000142938 3.81376e-23));
    }
}


// ************************************************************************* //
