/*--------------------------------*- C++ -*----------------------------------*\
| =========                 |                                                 |
| \\      /  F ield         | OpenFOAM: The Open Source CFD Toolbox           |
|  \\    /   O peration     | Version:  5.0                                   |
|   \\  /    A nd           | Web:      www.OpenFOAM.org                      |
|    \\/     M anipulation  |                                                 |
\*---------------------------------------------------------------------------*/
FoamFile
{
    version     2.0;
    format      ascii;
    class       surfaceScalarField;
    location    "0.7";
    object      phi;
}
// * * * * * * * * * * * * * * * * * * * * * * * * * * * * * * * * * * * * * //

dimensions      [0 3 -1 0 0 0 0];

internalField   nonuniform List<scalar> 
85
(
0.00020171
1.04556e-09
0.000201713
-2.44224e-09
0.000201711
1.2826e-09
0.00020175
-3.85185e-08
0.000201897
-1.46558e-07
0.0002068
-4.90299e-06
0.000212076
-5.27618e-06
0.000212744
-6.68733e-07
0.000212812
-6.76387e-08
-3.97126e-07
0.000185573
2.70855e-09
0.000185577
-6.03737e-09
0.000185571
6.95747e-09
0.0001856
-6.80345e-08
0.00018555
-9.63019e-08
0.000183486
-2.83865e-06
0.000181442
-3.23255e-06
0.000181314
-5.40314e-07
0.000181364
-1.18172e-07
-2.75104e-07
0.0001533
3.28942e-09
0.000153301
-7.08867e-09
0.000153298
1.03405e-08
0.000153288
-5.86085e-08
0.000153208
-1.63592e-08
0.000151699
-1.32951e-06
0.00015007
-1.60309e-06
0.000149815
-2.85402e-07
0.000149778
-8.13202e-08
-1.4712e-07
0.000104891
2.09703e-09
0.000104888
-4.34657e-09
0.000104891
7.28535e-09
0.000104859
-2.69585e-08
0.000104827
1.57215e-08
0.000103861
-3.63053e-07
0.000102725
-4.66747e-07
0.000102516
-7.67846e-08
0.000102459
-2.41505e-08
-5.08766e-08
4.03438e-05
4.03395e-05
4.03468e-05
4.03198e-05
4.03355e-05
3.99725e-05
3.95057e-05
3.9429e-05
3.94048e-05
)
;

boundaryField
{
    top
    {
        type            calculated;
        value           uniform 0;
    }
    bottom
    {
        type            symmetryPlane;
        value           uniform 0;
    }
    inlet
    {
        type            calculated;
        value           nonuniform List<scalar> 5(-0.000201711 -0.000185575 -0.000153301 -0.00010489 -4.03417e-05);
    }
    outlet
    {
        type            calculated;
        value           nonuniform List<scalar> 5(0.000213209 0.000181242 0.00014965 0.000102363 3.93539e-05);
    }
    frontAndBack
    {
        type            empty;
        value           nonuniform 0();
    }
}


// ************************************************************************* //
