/*--------------------------------*- C++ -*----------------------------------*\
| =========                 |                                                 |
| \\      /  F ield         | OpenFOAM: The Open Source CFD Toolbox           |
|  \\    /   O peration     | Version:  5.0                                   |
|   \\  /    A nd           | Web:      www.OpenFOAM.org                      |
|    \\/     M anipulation  |                                                 |
\*---------------------------------------------------------------------------*/
FoamFile
{
    version     2.0;
    format      ascii;
    class       surfaceScalarField;
    location    "0.7";
    object      phi;
}
// * * * * * * * * * * * * * * * * * * * * * * * * * * * * * * * * * * * * * //

dimensions      [0 3 -1 0 0 0 0];

internalField   nonuniform List<scalar> 
760
(
1.34592e-11
1.65186e-14
1.344e-11
1.92438e-14
1.34355e-11
4.4587e-15
1.3434e-11
1.53508e-15
1.34338e-11
2.24079e-16
1.34337e-11
7.77346e-17
1.34337e-11
-8.50498e-18
1.34337e-11
8.54982e-18
1.34337e-11
-1.19941e-17
1.34337e-11
2.56757e-18
1.34337e-11
2.21305e-19
1.34337e-11
6.44992e-18
1.34337e-11
-6.9593e-19
1.34337e-11
1.96333e-18
1.34337e-11
-1.0875e-18
1.34337e-11
9.38156e-19
1.34337e-11
-6.45515e-19
1.34337e-11
7.93003e-19
1.34337e-11
2.55363e-19
1.03737e-18
1.33772e-11
3.28312e-14
1.33586e-11
3.78417e-14
1.33544e-11
8.64209e-15
1.33528e-11
3.09271e-15
1.33527e-11
3.82564e-16
1.33526e-11
1.93064e-16
1.33526e-11
-4.67596e-17
1.33526e-11
3.86702e-17
1.33526e-11
-3.9822e-17
1.33526e-11
1.66228e-17
1.33526e-11
-8.07802e-18
1.33526e-11
1.91932e-17
1.33526e-11
-5.98457e-18
1.33526e-11
7.42022e-18
1.33526e-11
-4.77335e-18
1.33526e-11
3.80936e-18
1.33526e-11
-2.77571e-18
1.33526e-11
2.89936e-18
1.33526e-11
-5.34167e-19
2.85876e-18
1.32138e-11
4.81972e-14
1.31964e-11
5.52992e-14
1.31925e-11
1.25169e-14
1.31911e-11
4.53788e-15
1.31909e-11
5.22135e-16
1.31908e-11
3.02198e-16
1.31909e-11
-8.47408e-17
1.31908e-11
6.82448e-17
1.31909e-11
-6.71481e-17
1.31908e-11
3.02848e-17
1.31908e-11
-1.61675e-17
1.31908e-11
3.17695e-17
1.31908e-11
-1.12988e-17
1.31908e-11
1.27402e-17
1.31908e-11
-8.41656e-18
1.31908e-11
6.62033e-18
1.31908e-11
-4.89498e-18
1.31908e-11
4.89432e-18
1.31908e-11
-1.19014e-18
4.76893e-18
1.297e-11
6.21705e-14
1.29542e-11
7.10797e-14
1.29508e-11
1.59405e-14
1.29495e-11
5.82052e-15
1.29494e-11
6.34397e-16
1.29493e-11
4.02556e-16
1.29494e-11
-1.22442e-16
1.29493e-11
9.70083e-17
1.29493e-11
-9.35856e-17
1.29493e-11
4.35858e-17
1.29493e-11
-2.42075e-17
1.29493e-11
4.40225e-17
1.29493e-11
-1.65604e-17
1.29493e-11
1.79223e-17
1.29493e-11
-1.19555e-17
1.29493e-11
9.39963e-18
1.29493e-11
-6.96315e-18
1.29493e-11
6.89199e-18
1.29493e-11
-1.77364e-18
6.66381e-18
1.26471e-11
7.43413e-14
1.26335e-11
8.46971e-14
1.26306e-11
1.87905e-14
1.26296e-11
6.89681e-15
1.26295e-11
7.12753e-16
1.26294e-11
4.91737e-16
1.26294e-11
-1.59612e-16
1.26294e-11
1.24726e-16
1.26294e-11
-1.18839e-16
1.26294e-11
5.63832e-17
1.26294e-11
-3.20886e-17
1.26294e-11
5.57708e-17
1.26294e-11
-2.17713e-17
1.26294e-11
2.28548e-17
1.26294e-11
-1.54123e-17
1.26294e-11
1.20388e-17
1.26294e-11
-8.94557e-18
1.26294e-11
8.73399e-18
1.26294e-11
-2.21611e-18
8.63231e-18
1.2247e-11
8.43417e-14
1.2236e-11
9.57216e-14
1.22338e-11
2.09649e-14
1.22329e-11
7.73101e-15
1.22329e-11
7.52544e-16
1.22328e-11
5.67768e-16
1.22329e-11
-1.95817e-16
1.22328e-11
1.51058e-16
1.22329e-11
-1.42426e-16
1.22328e-11
6.86838e-17
1.22329e-11
-3.999e-17
1.22328e-11
6.67418e-17
1.22329e-11
-2.68302e-17
1.22328e-11
2.75117e-17
1.22328e-11
-1.86951e-17
1.22328e-11
1.45527e-17
1.22328e-11
-1.08533e-17
1.22328e-11
1.05251e-17
1.22328e-11
-2.56853e-18
1.0552e-17
1.1772e-11
9.18596e-14
1.17639e-11
1.03798e-13
1.17625e-11
2.23896e-14
1.17619e-11
8.2974e-15
1.17619e-11
7.51175e-16
1.17618e-11
6.29143e-16
1.17619e-11
-2.30601e-16
1.17618e-11
1.75689e-16
1.17619e-11
-1.63887e-16
1.17619e-11
8.03892e-17
1.17619e-11
-4.77574e-17
1.17619e-11
7.66043e-17
1.17619e-11
-3.17126e-17
1.17619e-11
3.17322e-17
1.17619e-11
-2.1766e-17
1.17619e-11
1.68712e-17
1.17619e-11
-1.2696e-17
1.17619e-11
1.22183e-17
1.17619e-11
-2.93787e-18
1.23539e-17
1.12248e-11
9.66491e-14
1.12199e-11
1.08657e-13
1.12193e-11
2.30209e-14
1.1219e-11
8.5815e-15
1.12191e-11
7.08721e-16
1.1219e-11
6.74776e-16
1.12191e-11
-2.63271e-16
1.1219e-11
1.98182e-16
1.12191e-11
-1.82778e-16
1.1219e-11
9.13263e-17
1.1219e-11
-5.53283e-17
1.1219e-11
8.51709e-17
1.1219e-11
-3.63823e-17
1.1219e-11
3.55597e-17
1.1219e-11
-2.45438e-17
1.1219e-11
1.90267e-17
1.1219e-11
-1.43747e-17
1.1219e-11
1.37138e-17
1.1219e-11
-3.34061e-18
1.39546e-17
1.06087e-11
9.85428e-14
1.06072e-11
1.10134e-13
1.06074e-11
2.28493e-14
1.06074e-11
8.58083e-15
1.06075e-11
6.27816e-16
1.06074e-11
7.04201e-16
1.06075e-11
-2.92898e-16
1.06074e-11
2.18076e-16
1.06074e-11
-1.98673e-16
1.06074e-11
1.01383e-16
1.06074e-11
-6.26012e-17
1.06074e-11
9.21917e-17
1.06074e-11
-4.06904e-17
1.06074e-11
3.8861e-17
1.06074e-11
-2.70681e-17
1.06074e-11
2.08898e-17
1.06074e-11
-1.58474e-17
1.06074e-11
1.49762e-17
1.06074e-11
-3.71764e-18
1.52712e-17
9.92715e-12
9.74641e-14
9.9291e-12
1.08179e-13
9.93005e-12
2.19018e-14
9.93033e-12
8.30556e-15
9.93044e-12
5.13842e-16
9.93043e-12
7.17322e-16
9.93045e-12
-3.18597e-16
9.93043e-12
2.3475e-16
9.93045e-12
-2.11048e-16
9.93044e-12
1.10163e-16
9.93045e-12
-6.93189e-17
9.93044e-12
9.73301e-17
9.93044e-12
-4.45295e-17
9.93044e-12
4.15468e-17
9.93044e-12
-2.91247e-17
9.93044e-12
2.24156e-17
9.93044e-12
-1.70861e-17
9.93044e-12
1.60155e-17
9.93044e-12
-4.21463e-18
1.62328e-17
9.18417e-12
9.34404e-14
9.18948e-12
1.02871e-13
9.19113e-12
2.02431e-14
9.19166e-12
7.77827e-15
9.1918e-12
3.74667e-16
9.1918e-12
7.14323e-16
9.19182e-12
-3.38992e-16
9.19181e-12
2.47616e-16
9.19182e-12
-2.19284e-16
9.19181e-12
1.17407e-16
9.19182e-12
-7.53603e-17
9.19181e-12
1.00374e-16
9.19182e-12
-4.77767e-17
9.19182e-12
4.34715e-17
9.19182e-12
-3.07548e-17
9.19182e-12
2.35559e-17
9.19182e-12
-1.80266e-17
9.19182e-12
1.67244e-17
9.19182e-12
-4.80885e-18
1.67984e-17
8.38404e-12
8.66162e-14
8.39248e-12
9.44369e-14
8.39474e-12
1.79758e-14
8.39549e-12
7.03354e-15
8.39564e-12
2.20584e-16
8.39566e-12
6.95731e-16
8.39568e-12
-3.52663e-16
8.39567e-12
2.55849e-16
8.39567e-12
-2.22854e-16
8.39567e-12
1.22698e-16
8.39567e-12
-8.01097e-17
8.39567e-12
1.01139e-16
8.39567e-12
-5.01361e-17
8.39567e-12
4.45705e-17
8.39567e-12
-3.17728e-17
8.39567e-12
2.42858e-17
8.39567e-12
-1.86178e-17
8.39567e-12
1.70606e-17
8.39567e-12
-5.4376e-18
1.69367e-17
7.53141e-12
7.72678e-14
7.54258e-12
8.32605e-14
7.54532e-12
1.52392e-14
7.54624e-12
6.11684e-15
7.54639e-12
6.37715e-17
7.54643e-12
6.61985e-16
7.54643e-12
-3.57871e-16
7.54643e-12
2.58305e-16
7.54643e-12
-2.2109e-16
7.54643e-12
1.25357e-16
7.54643e-12
-8.32628e-17
7.54643e-12
9.9277e-17
7.54643e-12
-5.14667e-17
7.54643e-12
4.45719e-17
7.54643e-12
-3.20713e-17
7.54643e-12
2.44383e-17
7.54643e-12
-1.88197e-17
7.54643e-12
1.69907e-17
7.54643e-12
-6.04772e-18
1.6544e-17
6.6312e-12
6.58183e-14
6.64457e-12
6.98986e-14
6.6476e-12
1.22065e-14
6.64863e-12
5.08273e-15
6.64878e-12
-8.1983e-17
6.64883e-12
6.13416e-16
6.64882e-12
-3.5271e-16
6.64883e-12
2.53746e-16
6.64882e-12
-2.13168e-16
6.64882e-12
1.24739e-16
6.64882e-12
-8.41926e-17
6.64882e-12
9.44976e-17
6.64882e-12
-5.13236e-17
6.64883e-12
4.34089e-17
6.64882e-12
-3.1468e-17
6.64883e-12
2.38983e-17
6.64882e-12
-1.85282e-17
6.64883e-12
1.64368e-17
6.64883e-12
-6.58559e-18
1.5607e-17
5.68864e-12
5.28543e-14
5.70345e-12
5.50949e-14
5.70657e-12
9.0806e-15
5.70766e-12
3.99255e-15
5.70778e-12
-2.01885e-16
5.70785e-12
5.49891e-16
5.70783e-12
-3.34877e-16
5.70784e-12
2.40671e-16
5.70783e-12
-1.98181e-16
5.70783e-12
1.19848e-16
5.70783e-12
-8.21612e-17
5.70784e-12
8.66753e-17
5.70784e-12
-4.93915e-17
5.70784e-12
4.0839e-17
5.70784e-12
-2.97819e-17
5.70784e-12
2.25607e-17
5.70784e-12
-1.75088e-17
5.70784e-12
1.53053e-17
5.70784e-12
-6.93995e-18
1.4128e-17
4.70919e-12
3.91423e-14
4.7245e-12
3.97921e-14
4.72749e-12
6.08606e-15
4.72857e-12
2.91138e-15
4.72865e-12
-2.80827e-16
4.72873e-12
4.70576e-16
4.7287e-12
-3.01857e-16
4.72872e-12
2.17104e-16
4.7287e-12
-1.75086e-16
4.72871e-12
1.09555e-16
4.7287e-12
-7.61525e-17
4.72871e-12
7.53604e-17
4.72871e-12
-4.5182e-17
4.72871e-12
3.6503e-17
4.72871e-12
-2.68462e-17
4.72871e-12
2.02123e-17
4.72871e-12
-1.5757e-17
4.72871e-12
1.3583e-17
4.72871e-12
-7.01159e-18
1.20045e-17
3.69853e-12
2.56467e-14
3.71318e-12
2.51448e-14
3.7158e-12
3.46098e-15
3.71681e-12
1.90447e-15
3.71683e-12
-3.04121e-16
3.71693e-12
3.73627e-16
3.71688e-12
-2.50737e-16
3.71691e-12
1.80864e-16
3.71688e-12
-1.42725e-16
3.7169e-12
9.24603e-17
3.71689e-12
-6.51808e-17
3.7169e-12
6.03387e-17
3.7169e-12
-3.81103e-17
3.7169e-12
3.01466e-17
3.7169e-12
-2.23071e-17
3.7169e-12
1.67688e-17
3.7169e-12
-1.30733e-17
3.7169e-12
1.11509e-17
3.7169e-12
-6.56353e-18
9.32699e-18
2.66251e-12
1.35506e-14
2.67512e-12
1.25321e-14
2.67714e-12
1.44717e-15
2.67801e-12
1.03339e-15
2.67796e-12
-2.58067e-16
2.67808e-12
2.55865e-16
2.67801e-12
-1.78207e-16
2.67806e-12
1.29131e-16
2.67801e-12
-9.97076e-17
2.67804e-12
6.68486e-17
2.67802e-12
-4.77447e-17
2.67804e-12
4.13601e-17
2.67803e-12
-2.74623e-17
2.67804e-12
2.14023e-17
2.67803e-12
-1.58664e-17
2.67804e-12
1.19384e-17
2.67803e-12
-9.28524e-18
2.67804e-12
7.82566e-18
2.67804e-12
-5.20724e-18
6.13624e-18
1.60714e-12
4.27808e-15
1.6161e-12
3.56991e-15
1.61727e-12
2.76948e-16
1.61796e-12
3.49298e-16
1.61783e-12
-1.30558e-16
1.61797e-12
1.11957e-16
1.61788e-12
-8.01984e-17
1.61795e-12
5.83649e-17
1.61789e-12
-4.422e-17
1.61793e-12
3.05552e-17
1.6179e-12
-2.20667e-17
1.61793e-12
1.80435e-17
1.61791e-12
-1.25089e-17
1.61792e-12
9.60813e-18
1.61791e-12
-7.14744e-18
1.61792e-12
5.37283e-18
1.61792e-12
-4.17533e-18
1.61792e-12
3.49466e-18
1.61792e-12
-2.57725e-18
2.54392e-18
5.38303e-13
5.41873e-13
5.4215e-13
5.425e-13
5.42369e-13
5.42481e-13
5.42401e-13
5.42459e-13
5.42415e-13
5.42446e-13
5.42423e-13
5.42442e-13
5.42429e-13
5.42439e-13
5.42431e-13
5.42437e-13
5.42433e-13
5.42436e-13
5.42434e-13
)
;

boundaryField
{
    top
    {
        type            calculated;
        value           uniform 0;
    }
    bottom
    {
        type            symmetryPlane;
        value           uniform 0;
    }
    inlet
    {
        type            calculated;
        value           nonuniform List<scalar> 
20
(
-1.34757e-11
-1.33935e-11
-1.32292e-11
-1.2984e-11
-1.26593e-11
-1.2257e-11
-1.17795e-11
-1.12296e-11
-1.06106e-11
-9.92607e-12
-9.18014e-12
-8.37722e-12
-7.52206e-12
-6.61975e-12
-5.67568e-12
-4.69548e-12
-3.68503e-12
-2.65041e-12
-1.59787e-12
-5.34025e-13
)
;
    }
    outlet
    {
        type            calculated;
        value           nonuniform List<scalar> 
20
(
1.34337e-11
1.33526e-11
1.31908e-11
1.29493e-11
1.26294e-11
1.22328e-11
1.17619e-11
1.1219e-11
1.06074e-11
9.93044e-12
9.19182e-12
8.39567e-12
7.54643e-12
6.64883e-12
5.70784e-12
4.72872e-12
3.7169e-12
2.67804e-12
1.61792e-12
5.42436e-13
)
;
    }
    frontAndBack
    {
        type            empty;
        value           nonuniform 0();
    }
}


// ************************************************************************* //
