/*--------------------------------*- C++ -*----------------------------------*\
| =========                 |                                                 |
| \\      /  F ield         | OpenFOAM: The Open Source CFD Toolbox           |
|  \\    /   O peration     | Version:  5.0                                   |
|   \\  /    A nd           | Web:      www.OpenFOAM.org                      |
|    \\/     M anipulation  |                                                 |
\*---------------------------------------------------------------------------*/
FoamFile
{
    version     2.0;
    format      ascii;
    class       volScalarField;
    location    "0.7";
    object      shearRate;
}
// * * * * * * * * * * * * * * * * * * * * * * * * * * * * * * * * * * * * * //

dimensions      [0 0 -1 0 0 0 0];

internalField   nonuniform List<scalar> 
400
(
1.6871e-07
1.66827e-07
1.66066e-07
1.65835e-07
1.65809e-07
1.65792e-07
1.65796e-07
1.65792e-07
1.65795e-07
1.65793e-07
1.65794e-07
1.65793e-07
1.65794e-07
1.65793e-07
1.65794e-07
1.65793e-07
1.65794e-07
1.65793e-07
1.65794e-07
1.65794e-07
5.0439e-07
4.98585e-07
4.97244e-07
4.96597e-07
4.96532e-07
4.9648e-07
4.96493e-07
4.96481e-07
4.9649e-07
4.96484e-07
4.96488e-07
4.96485e-07
4.96487e-07
4.96485e-07
4.96486e-07
4.96485e-07
4.96486e-07
4.96486e-07
4.96486e-07
4.96486e-07
8.37275e-07
8.27731e-07
8.25661e-07
8.24613e-07
8.24514e-07
8.24427e-07
8.24451e-07
8.2443e-07
8.24445e-07
8.24435e-07
8.24442e-07
8.24436e-07
8.2444e-07
8.24437e-07
8.24439e-07
8.24437e-07
8.24439e-07
8.24438e-07
8.24438e-07
8.24439e-07
1.16525e-06
1.15221e-06
1.14946e-06
1.14805e-06
1.14792e-06
1.1478e-06
1.14784e-06
1.14781e-06
1.14783e-06
1.14782e-06
1.14783e-06
1.14782e-06
1.14782e-06
1.14782e-06
1.14782e-06
1.14782e-06
1.14782e-06
1.14782e-06
1.14782e-06
1.14782e-06
1.48637e-06
1.47014e-06
1.46683e-06
1.4651e-06
1.46496e-06
1.46481e-06
1.46486e-06
1.46482e-06
1.46485e-06
1.46483e-06
1.46484e-06
1.46483e-06
1.46484e-06
1.46483e-06
1.46483e-06
1.46483e-06
1.46483e-06
1.46483e-06
1.46483e-06
1.46483e-06
1.79873e-06
1.77972e-06
1.77597e-06
1.77398e-06
1.77385e-06
1.77366e-06
1.77373e-06
1.77367e-06
1.77371e-06
1.77369e-06
1.77371e-06
1.77369e-06
1.7737e-06
1.77369e-06
1.7737e-06
1.77369e-06
1.7737e-06
1.7737e-06
1.7737e-06
1.7737e-06
2.10047e-06
2.07918e-06
2.07516e-06
2.07298e-06
2.07287e-06
2.07265e-06
2.07274e-06
2.07267e-06
2.07272e-06
2.07269e-06
2.07271e-06
2.07269e-06
2.0727e-06
2.07269e-06
2.0727e-06
2.07269e-06
2.0727e-06
2.0727e-06
2.0727e-06
2.0727e-06
2.38981e-06
2.36683e-06
2.36272e-06
2.36042e-06
2.36035e-06
2.36011e-06
2.36022e-06
2.36013e-06
2.36019e-06
2.36016e-06
2.36019e-06
2.36016e-06
2.36017e-06
2.36016e-06
2.36017e-06
2.36016e-06
2.36017e-06
2.36016e-06
2.36017e-06
2.36016e-06
2.66502e-06
2.64105e-06
2.63705e-06
2.63472e-06
2.63471e-06
2.63443e-06
2.63457e-06
2.63447e-06
2.63454e-06
2.63449e-06
2.63453e-06
2.6345e-06
2.63452e-06
2.6345e-06
2.63451e-06
2.63451e-06
2.63451e-06
2.63451e-06
2.63451e-06
2.63451e-06
2.92447e-06
2.90029e-06
2.89662e-06
2.89433e-06
2.89441e-06
2.89411e-06
2.89427e-06
2.89415e-06
2.89424e-06
2.89418e-06
2.89423e-06
2.89419e-06
2.89421e-06
2.89419e-06
2.89421e-06
2.8942e-06
2.8942e-06
2.8942e-06
2.8942e-06
2.8942e-06
3.16659e-06
3.14311e-06
3.13999e-06
3.13783e-06
3.13802e-06
3.13768e-06
3.13788e-06
3.13773e-06
3.13784e-06
3.13777e-06
3.13783e-06
3.13778e-06
3.13781e-06
3.13779e-06
3.1378e-06
3.13779e-06
3.1378e-06
3.13779e-06
3.1378e-06
3.13779e-06
3.38991e-06
3.36816e-06
3.36582e-06
3.36386e-06
3.36418e-06
3.3638e-06
3.36404e-06
3.36387e-06
3.364e-06
3.36391e-06
3.36398e-06
3.36392e-06
3.36396e-06
3.36393e-06
3.36395e-06
3.36394e-06
3.36395e-06
3.36394e-06
3.36394e-06
3.36394e-06
3.5931e-06
3.57419e-06
3.57286e-06
3.57116e-06
3.57163e-06
3.57121e-06
3.5715e-06
3.57129e-06
3.57145e-06
3.57134e-06
3.57142e-06
3.57135e-06
3.5714e-06
3.57137e-06
3.57139e-06
3.57137e-06
3.57138e-06
3.57138e-06
3.57138e-06
3.57138e-06
3.77488e-06
3.7601e-06
3.75999e-06
3.75859e-06
3.75923e-06
3.75875e-06
3.7591e-06
3.75885e-06
3.75904e-06
3.7589e-06
3.759e-06
3.75892e-06
3.75898e-06
3.75894e-06
3.75897e-06
3.75895e-06
3.75896e-06
3.75895e-06
3.75896e-06
3.75895e-06
3.93413e-06
3.92487e-06
3.92616e-06
3.92508e-06
3.92593e-06
3.92537e-06
3.92579e-06
3.92549e-06
3.92571e-06
3.92555e-06
3.92567e-06
3.92558e-06
3.92565e-06
3.9256e-06
3.92563e-06
3.92561e-06
3.92562e-06
3.92561e-06
3.92562e-06
3.92561e-06
4.06984e-06
4.06764e-06
4.07047e-06
4.06972e-06
4.07078e-06
4.07012e-06
4.07063e-06
4.07026e-06
4.07054e-06
4.07034e-06
4.07048e-06
4.07037e-06
4.07045e-06
4.0704e-06
4.07044e-06
4.07041e-06
4.07043e-06
4.07042e-06
4.07042e-06
4.07042e-06
4.1811e-06
4.18767e-06
4.19213e-06
4.19167e-06
4.19297e-06
4.19219e-06
4.19281e-06
4.19236e-06
4.19269e-06
4.19244e-06
4.19262e-06
4.19249e-06
4.19259e-06
4.19252e-06
4.19257e-06
4.19253e-06
4.19256e-06
4.19254e-06
4.19255e-06
4.19255e-06
4.26716e-06
4.28437e-06
4.29049e-06
4.29026e-06
4.29181e-06
4.29088e-06
4.29162e-06
4.29108e-06
4.29147e-06
4.29118e-06
4.29139e-06
4.29124e-06
4.29136e-06
4.29127e-06
4.29133e-06
4.29129e-06
4.29132e-06
4.2913e-06
4.29131e-06
4.29131e-06
4.32739e-06
4.35734e-06
4.3651e-06
4.36496e-06
4.3668e-06
4.36567e-06
4.36655e-06
4.36591e-06
4.36637e-06
4.36602e-06
4.36628e-06
4.3661e-06
4.36624e-06
4.36614e-06
4.36621e-06
4.36616e-06
4.36619e-06
4.36617e-06
4.36618e-06
4.36618e-06
4.36134e-06
4.40638e-06
4.41563e-06
4.41541e-06
4.41754e-06
4.41618e-06
4.41723e-06
4.41645e-06
4.41702e-06
4.41659e-06
4.4169e-06
4.41668e-06
4.41685e-06
4.41673e-06
4.41682e-06
4.41675e-06
4.4168e-06
4.41677e-06
4.41679e-06
4.41679e-06
)
;

boundaryField
{
    top
    {
        type            zeroGradient;
    }
    bottom
    {
        type            symmetryPlane;
    }
    inlet
    {
        type            zeroGradient;
    }
    outlet
    {
        type            zeroGradient;
    }
    frontAndBack
    {
        type            empty;
    }
}


// ************************************************************************* //
