/*--------------------------------*- C++ -*----------------------------------*\
| =========                 |                                                 |
| \\      /  F ield         | OpenFOAM: The Open Source CFD Toolbox           |
|  \\    /   O peration     | Version:  5.0                                   |
|   \\  /    A nd           | Web:      www.OpenFOAM.org                      |
|    \\/     M anipulation  |                                                 |
\*---------------------------------------------------------------------------*/
FoamFile
{
    version     2.0;
    format      ascii;
    class       volVectorField;
    location    "0.7";
    object      U;
}
// * * * * * * * * * * * * * * * * * * * * * * * * * * * * * * * * * * * * * //

dimensions      [0 1 -1 0 0 0 0];

internalField   nonuniform List<vector> 
50
(
(1.00857 6.00943e-07 1.03458e-27)
(1.00848 -1.4077e-06 -3.25961e-23)
(1.00876 8.67843e-07 -3.26301e-23)
(1.00814 -2.0777e-05 -3.25659e-23)
(1.01019 -6.76214e-05 -4.75425e-25)
(1.00738 -0.000999394 6.64651e-23)
(1.06017 0.00117023 8.3601e-23)
(1.06249 -0.000127802 -4.062e-23)
(1.06397 2.07132e-05 -4.6254e-25)
(1.06562 -0.00506588 2.01643e-23)
(0.927882 2.02e-06 -7.17374e-37)
(0.927797 -4.58658e-06 2.82247e-23)
(0.928059 4.30019e-06 3.8357e-27)
(0.927463 -5.78584e-05 -2.84378e-23)
(0.928835 -0.000140157 -2.82114e-23)
(0.926308 -0.00420676 1.64416e-23)
(0.908366 -0.00536527 5.31308e-23)
(0.906435 -0.000752766 7.21043e-23)
(0.906759 -0.000125643 -4.70142e-25)
(0.906391 0.000741966 -9.56705e-23)
(0.766512 3.20383e-06 -2.76042e-23)
(0.766439 -7.01535e-06 -7.3217e-26)
(0.766659 9.14423e-06 2.82325e-23)
(0.766139 -6.78011e-05 -5.63684e-23)
(0.766957 -6.59203e-05 -5.63199e-23)
(0.764951 -0.00252137 2.6518e-23)
(0.751834 -0.00292381 3.07966e-23)
(0.749103 -0.000459422 2.97412e-23)
(0.749119 -0.000106578 1.60129e-25)
(0.748366 4.7035e-05 -3.19465e-23)
(0.524456 2.93223e-06 5.52957e-23)
(0.524404 -6.2222e-06 2.81422e-23)
(0.52456 9.64913e-06 -5.64634e-23)
(0.524182 -4.60254e-05 -2.79432e-23)
(0.524659 8.17977e-06 5.7258e-23)
(0.523363 -0.0007744 6.58593e-23)
(0.514997 -0.000899903 3.89888e-23)
(0.512614 -0.000159699 1.81038e-24)
(0.51255 -5.36343e-05 -2.75845e-23)
(0.511879 -0.000159723 -2.79906e-24)
(0.201714 1.09282e-06 3.97192e-23)
(0.201692 -2.28801e-06 2.01062e-23)
(0.201758 3.76119e-06 -6.03577e-23)
(0.2016 -1.47036e-05 -2.0091e-23)
(0.20179 1.01568e-05 4.0245e-23)
(0.201339 -0.00014291 3.81378e-23)
(0.198215 -0.000177969 1.98307e-23)
(0.197143 -3.29771e-05 -4.14042e-25)
(0.197129 -1.3768e-05 0)
(0.196814 -5.55128e-05 0)
)
;

boundaryField
{
    top
    {
        type            fixedValue;
        value           uniform (0 0 0);
    }
    bottom
    {
        type            symmetryPlane;
    }
    inlet
    {
        type            pressureInletVelocity;
        value           nonuniform List<vector> 5((1.00856 0 0) (0.927873 0 0) (0.766503 0 0) (0.524448 0 0) (0.201709 0 0));
    }
    outlet
    {
        type            inletOutlet;
        inletValue      uniform (1 0 0);
        value           nonuniform List<vector> 5((1.06562 -0.00506588 2.01643e-23) (0.906391 0.000741966 -9.56705e-23) (0.748366 4.7035e-05 -3.19465e-23) (0.511879 -0.000159723 -2.79906e-24) (0.196814 -5.55128e-05 0));
    }
    frontAndBack
    {
        type            empty;
    }
}


// ************************************************************************* //
