/*--------------------------------*- C++ -*----------------------------------*\
| =========                 |                                                 |
| \\      /  F ield         | OpenFOAM: The Open Source CFD Toolbox           |
|  \\    /   O peration     | Version:  5.0                                   |
|   \\  /    A nd           | Web:      www.OpenFOAM.org                      |
|    \\/     M anipulation  |                                                 |
\*---------------------------------------------------------------------------*/
FoamFile
{
    version     2.0;
    format      ascii;
    class       volVectorField;
    location    "0.7";
    object      U;
}
// * * * * * * * * * * * * * * * * * * * * * * * * * * * * * * * * * * * * * //

dimensions      [0 1 -1 0 0 0 0];

internalField   nonuniform List<vector> 
400
(
(2.69534e-07 1.6577e-11 -6.26521e-33)
(2.68802e-07 1.92938e-11 -3.84865e-32)
(2.6878e-07 4.48488e-12 -2.74977e-32)
(2.68652e-07 1.55413e-12 0)
(2.68699e-07 2.20633e-13 0)
(2.68657e-07 8.27501e-14 2.84674e-32)
(2.68686e-07 -1.16698e-14 2.83327e-32)
(2.68664e-07 1.1137e-14 -2.82538e-32)
(2.6868e-07 -1.37244e-14 -2.82521e-32)
(2.68669e-07 4.12362e-15 0)
(2.68677e-07 -5.85617e-16 1.08727e-34)
(2.68671e-07 6.93525e-15 0)
(2.68676e-07 -1.52222e-15 0)
(2.68672e-07 2.28424e-15 0)
(2.68675e-07 -1.48684e-15 0)
(2.68673e-07 1.10044e-15 2.86289e-32)
(2.68674e-07 -8.88446e-16 -1.92262e-35)
(2.68673e-07 9.71189e-16 1.24072e-46)
(2.68674e-07 7.12892e-17 -2.41515e-54)
(2.68674e-07 1.16381e-15 -2.876e-32)
(2.67886e-07 4.96349e-11 -1.47864e-45)
(2.67173e-07 5.7471e-11 -1.43382e-32)
(2.67156e-07 1.32234e-11 3.36232e-33)
(2.6703e-07 4.66245e-12 -2.39391e-32)
(2.67077e-07 6.1774e-13 0)
(2.67035e-07 2.70355e-13 0)
(2.67064e-07 -5.33461e-14 -5.54023e-34)
(2.67043e-07 4.58741e-14 4.91022e-32)
(2.67058e-07 -5.09846e-14 3.08828e-34)
(2.67047e-07 1.83786e-14 -4.87454e-32)
(2.67055e-07 -7.42697e-15 -2.44323e-32)
(2.67049e-07 2.5427e-14 -2.45119e-32)
(2.67054e-07 -6.1428e-15 0)
(2.6705e-07 9.25139e-15 0)
(2.67053e-07 -5.61645e-15 -2.44662e-32)
(2.67051e-07 4.64161e-15 -7.29647e-35)
(2.67052e-07 -3.26998e-15 2.43841e-32)
(2.67051e-07 3.59502e-15 2.4408e-32)
(2.67052e-07 -2.1167e-16 -1.95138e-35)
(2.67052e-07 3.77588e-15 -2.45181e-32)
(2.646e-07 8.15757e-11 -6.96756e-33)
(2.63925e-07 9.38519e-11 1.23041e-31)
(2.63916e-07 2.13654e-11 2.49522e-32)
(2.63794e-07 7.68915e-12 -2.41697e-32)
(2.63842e-07 9.23489e-13 -2.45764e-32)
(2.638e-07 4.93775e-13 1.44233e-34)
(2.63829e-07 -1.27805e-13 -5.93899e-35)
(2.63808e-07 1.04514e-13 2.44124e-32)
(2.63823e-07 -1.0522e-13 1.61201e-35)
(2.63812e-07 4.57442e-14 -2.43633e-32)
(2.6382e-07 -2.31662e-14 2.44323e-32)
(2.63814e-07 5.01949e-14 5.09056e-36)
(2.63819e-07 -1.68547e-14 -2.44203e-32)
(2.63815e-07 1.97581e-14 -2.43947e-32)
(2.63818e-07 -1.29398e-14 4.8829e-32)
(2.63816e-07 1.01998e-14 2.44091e-32)
(2.63817e-07 -7.53415e-15 -4.88268e-32)
(2.63816e-07 7.6844e-15 1.01811e-35)
(2.63817e-07 -1.66317e-15 2.54528e-36)
(2.63817e-07 7.54147e-15 -5.11309e-36)
(2.59696e-07 1.11156e-10 -7.55802e-32)
(2.59077e-07 1.27336e-10 1.89124e-31)
(2.59079e-07 2.87165e-11 -4.98362e-32)
(2.58963e-07 1.04492e-11 -3.30365e-32)
(2.59011e-07 1.17291e-12 2.45746e-32)
(2.5897e-07 7.09021e-13 2.4751e-32)
(2.58999e-07 -2.06846e-13 2.42171e-32)
(2.58978e-07 1.65296e-13 1.9429e-34)
(2.58993e-07 -1.60975e-13 -2.44577e-32)
(2.58982e-07 7.37663e-14 2.44626e-32)
(2.5899e-07 -4.02877e-14 2.42609e-32)
(2.58984e-07 7.59133e-14 -4.92088e-35)
(2.58989e-07 -2.7677e-14 -5.59962e-35)
(2.58985e-07 3.0717e-14 3.05434e-35)
(2.58988e-07 -2.03567e-14 -6.87226e-35)
(2.58986e-07 1.59868e-14 -1.69685e-35)
(2.58987e-07 -1.17794e-14 2.44028e-32)
(2.58986e-07 1.17816e-14 -2.43792e-32)
(2.58987e-07 -2.96432e-15 -2.20591e-35)
(2.58987e-07 1.13537e-14 4.90329e-32)
(2.53201e-07 1.37497e-10 2.35434e-31)
(2.52654e-07 1.56956e-10 -1.803e-31)
(2.52672e-07 3.50433e-11 -7.46224e-32)
(2.52563e-07 1.283e-11 -1.35776e-32)
(2.52612e-07 1.36492e-12 4.83109e-32)
(2.52572e-07 9.00805e-13 2.42871e-32)
(2.526e-07 -2.82765e-13 0)
(2.52579e-07 2.22572e-13 -2.27379e-34)
(2.52595e-07 -2.13285e-13 0)
(2.52584e-07 1.0043e-13 4.87454e-32)
(2.52592e-07 -5.64217e-14 -1.00114e-34)
(2.52586e-07 1.0016e-13 -5.59962e-35)
(2.5259e-07 -3.85177e-14 2.4422e-32)
(2.52587e-07 4.09453e-14 -1.2169e-46)
(2.52589e-07 -2.74919e-14 2.54528e-35)
(2.52587e-07 2.15696e-14 -2.43854e-32)
(2.52589e-07 -1.60146e-14 2.4413e-32)
(2.52588e-07 1.57102e-14 2.43927e-32)
(2.52588e-07 -4.04054e-15 -1.35748e-35)
(2.52588e-07 1.5385e-14 1.36349e-35)
(2.45156e-07 1.59832e-10 -1.39188e-32)
(2.44695e-07 1.81791e-10 -2.62261e-31)
(2.4473e-07 4.01128e-11 4.83308e-32)
(2.44631e-07 1.47552e-11 5.96784e-33)
(2.4468e-07 1.48526e-12 -2.45699e-32)
(2.44641e-07 1.06653e-12 -6.14261e-34)
(2.44669e-07 -3.56059e-13 7.61888e-34)
(2.44648e-07 2.76603e-13 -5.29419e-34)
(2.44664e-07 -2.62257e-13 0)
(2.44652e-07 1.25275e-13 2.42565e-32)
(2.44661e-07 -7.21285e-14 -2.4081e-32)
(2.44654e-07 1.22985e-13 -2.43237e-32)
(2.44659e-07 -4.85847e-14 2.44915e-32)
(2.44656e-07 5.0546e-14 -2.43557e-32)
(2.44658e-07 -3.41902e-14 2.45061e-32)
(2.44656e-07 2.66009e-14 2.43845e-32)
(2.44657e-07 -1.97796e-14 -2.44189e-32)
(2.44657e-07 1.93176e-14 -2.88465e-35)
(2.44657e-07 -4.80159e-15 -2.43976e-32)
(2.44657e-07 1.91451e-14 -2.45088e-32)
(2.35606e-07 1.77487e-10 -9.25037e-46)
(2.35244e-07 2.01046e-10 1.3264e-31)
(2.35298e-07 4.37417e-11 -7.07588e-34)
(2.35209e-07 1.61655e-11 -1.28672e-32)
(2.3526e-07 1.52453e-12 1.23786e-33)
(2.35221e-07 1.20454e-12 -2.42877e-32)
(2.35249e-07 -4.27348e-13 -2.35922e-32)
(2.35228e-07 3.2768e-13 4.83741e-32)
(2.35243e-07 -3.07449e-13 2.46636e-32)
(2.35232e-07 1.49492e-13 -4.87455e-32)
(2.35241e-07 -8.78212e-14 2.48547e-32)
(2.35235e-07 1.43949e-13 2.44679e-32)
(2.35239e-07 -5.87553e-14 2.4461e-32)
(2.35236e-07 5.9437e-14 -2.44515e-32)
(2.35238e-07 -4.05805e-14 -4.8834e-32)
(2.35236e-07 3.15871e-14 7.31926e-32)
(2.35238e-07 -2.36723e-14 3.25468e-43)
(2.35237e-07 2.28291e-14 -2.4408e-32)
(2.35237e-07 -5.52121e-15 2.44256e-32)
(2.35237e-07 2.30846e-14 -2.21567e-35)
(2.24608e-07 1.89895e-10 1.49398e-31)
(2.24356e-07 2.14089e-10 9.44278e-32)
(2.2443e-07 4.58114e-11 -2.4695e-32)
(2.24352e-07 1.70201e-11 1.32389e-32)
(2.24403e-07 1.48007e-12 2.45641e-32)
(2.24365e-07 1.31179e-12 -2.35025e-32)
(2.24393e-07 -4.95023e-13 -2.50233e-32)
(2.24372e-07 3.75032e-13 2.54522e-32)
(2.24387e-07 -3.48052e-13 2.46983e-32)
(2.24376e-07 1.72039e-13 1.62898e-34)
(2.24384e-07 -1.03165e-13 2.39435e-32)
(2.24378e-07 1.62477e-13 2.4479e-32)
(2.24383e-07 -6.81738e-14 -2.45102e-32)
(2.2438e-07 6.75425e-14 -1.17083e-34)
(2.24382e-07 -4.64528e-14 2.43355e-32)
(2.2438e-07 3.59516e-14 2.44448e-32)
(2.24381e-07 -2.70764e-14 2.16831e-43)
(2.24381e-07 2.60197e-14 -2.43868e-32)
(2.24381e-07 -6.26121e-15 2.4429e-32)
(2.24381e-07 2.63611e-14 4.90227e-32)
(2.12227e-07 1.96638e-10 -1.6316e-31)
(2.12091e-07 2.20477e-10 -1.70574e-31)
(2.12185e-07 4.62666e-11 2.46255e-32)
(2.12119e-07 1.73016e-11 6.49217e-33)
(2.1217e-07 1.35468e-12 -2.45612e-32)
(2.12133e-07 1.38714e-12 -8.50973e-34)
(2.1216e-07 -5.57935e-13 2.38997e-32)
(2.1214e-07 4.17669e-13 -4.19972e-34)
(2.12155e-07 -3.83083e-13 -2.44573e-32)
(2.12144e-07 1.93287e-13 4.87457e-32)
(2.12152e-07 -1.18139e-13 2.44322e-32)
(2.12146e-07 1.78235e-13 -1.0266e-34)
(2.12151e-07 -7.73436e-14 -4.88438e-32)
(2.12147e-07 7.47007e-14 -2.42674e-32)
(2.1215e-07 -5.17892e-14 4.88806e-32)
(2.12148e-07 4.00955e-14 2.4382e-32)
(2.12149e-07 -3.03693e-14 -2.44087e-32)
(2.12148e-07 2.88031e-14 -4.8838e-32)
(2.12149e-07 -7.02899e-15 2.43925e-32)
(2.12149e-07 2.94303e-14 4.90543e-32)
(1.98537e-07 1.97463e-10 -1.71759e-31)
(1.9852e-07 2.19989e-10 -1.70099e-31)
(1.98633e-07 4.51247e-11 2.45547e-32)
(1.98578e-07 1.70175e-11 2.69183e-44)
(1.98629e-07 1.15648e-12 -2.65506e-32)
(1.98594e-07 1.42957e-12 -5.39332e-44)
(1.9862e-07 -6.1375e-13 -2.58263e-32)
(1.98601e-07 4.54573e-13 -4.68332e-34)
(1.98615e-07 -4.11619e-13 4.86054e-32)
(1.98604e-07 2.12199e-13 -2.41591e-32)
(1.98612e-07 -1.322e-13 -2.42251e-32)
(1.98606e-07 1.90457e-13 2.43901e-32)
(1.98611e-07 -8.54912e-14 4.88998e-32)
(1.98608e-07 8.07564e-14 -2.43998e-32)
(1.9861e-07 -5.64196e-14 -4.88338e-32)
(1.98608e-07 4.34515e-14 2.44041e-32)
(1.98609e-07 -3.30391e-14 -5.74586e-50)
(1.98609e-07 3.11291e-14 2.44317e-32)
(1.98609e-07 -7.91513e-15 2.44111e-32)
(1.98609e-07 3.16516e-14 1.08883e-43)
(1.83619e-07 1.92316e-10 -1.60801e-31)
(1.83719e-07 2.12647e-10 0)
(1.83849e-07 4.24765e-11 4.30066e-32)
(1.83805e-07 1.62006e-11 2.94388e-32)
(1.83855e-07 8.98836e-13 -2.45561e-32)
(1.83822e-07 1.43956e-12 2.52394e-32)
(1.83847e-07 -6.60584e-13 -7.3389e-34)
(1.83828e-07 4.84483e-13 -2.33121e-32)
(1.83842e-07 -4.32485e-13 2.41159e-32)
(1.83832e-07 2.28452e-13 2.70007e-44)
(1.83839e-07 -1.45182e-13 -6.97407e-34)
(1.83834e-07 1.98835e-13 -6.49879e-43)
(1.83838e-07 -9.267e-14 -4.89074e-32)
(1.83835e-07 8.54207e-14 -7.97522e-35)
(1.83837e-07 -6.01422e-14 4.87769e-32)
(1.83836e-07 4.61947e-14 2.44262e-32)
(1.83837e-07 -3.52785e-14 -1.08415e-43)
(1.83836e-07 3.28985e-14 -4.87896e-32)
(1.83836e-07 -8.97874e-15 1.0864e-43)
(1.83836e-07 3.32448e-14 4.90629e-32)
(1.6756e-07 1.81361e-10 1.50586e-31)
(1.67772e-07 1.98751e-10 2.34799e-32)
(1.67916e-07 3.84896e-11 4.88392e-32)
(1.67882e-07 1.49086e-11 -2.41682e-32)
(1.67931e-07 5.99901e-13 -2.20335e-32)
(1.67899e-07 1.41771e-12 2.33058e-32)
(1.67924e-07 -6.9543e-13 1.60183e-33)
(1.67906e-07 5.06075e-13 -5.68446e-34)
(1.67919e-07 -4.44654e-13 3.71611e-34)
(1.67909e-07 2.41291e-13 2.41075e-32)
(1.67916e-07 -1.56127e-13 -2.41741e-32)
(1.67911e-07 2.02712e-13 -2.45277e-32)
(1.67915e-07 -9.84495e-14 2.44948e-32)
(1.67912e-07 8.85299e-14 -2.4225e-32)
(1.67914e-07 -6.28939e-14 6.3632e-35)
(1.67913e-07 4.81374e-14 -2.46044e-35)
(1.67914e-07 -3.68929e-14 1.05832e-46)
(1.67913e-07 3.40054e-14 2.4352e-32)
(1.67914e-07 -1.02531e-14 -2.44365e-32)
(1.67913e-07 3.40104e-14 -2.4491e-32)
(1.50457e-07 1.65012e-10 -6.91737e-33)
(1.5077e-07 1.78904e-10 -2.34025e-32)
(1.50923e-07 3.34074e-11 6.08144e-32)
(1.50898e-07 1.32221e-11 -2.82526e-33)
(1.50945e-07 2.82554e-13 -4.91058e-32)
(1.50915e-07 1.36511e-12 -1.01642e-33)
(1.50938e-07 -7.15151e-13 1.73079e-33)
(1.50922e-07 5.17263e-13 -6.21049e-34)
(1.50934e-07 -4.46771e-13 2.48588e-32)
(1.50925e-07 2.49421e-13 -5.28519e-47)
(1.50931e-07 -1.64337e-13 5.58265e-34)
(1.50927e-07 2.01789e-13 1.49323e-34)
(1.5093e-07 -1.0216e-13 2.45067e-32)
(1.50928e-07 8.96889e-14 9.3327e-35)
(1.50929e-07 -6.42123e-14 -2.44168e-32)
(1.50928e-07 4.89838e-14 4.87795e-32)
(1.50929e-07 -3.76327e-14 -2.44214e-32)
(1.50928e-07 3.42644e-14 -2.44376e-32)
(1.50929e-07 -1.14774e-14 2.4411e-32)
(1.50929e-07 3.36903e-14 -1.08883e-43)
(1.32411e-07 1.43964e-10 1.0952e-31)
(1.32808e-07 1.54042e-10 0)
(1.32964e-07 2.7544e-11 2.43136e-32)
(1.32947e-07 1.12423e-11 -2.40784e-33)
(1.32992e-07 -2.71773e-14 -2.45524e-32)
(1.32964e-07 1.28279e-12 -2.32509e-32)
(1.32986e-07 -7.16314e-13 -5.44989e-44)
(1.3297e-07 5.15906e-13 2.50164e-32)
(1.32981e-07 -4.37517e-13 2.40247e-32)
(1.32973e-07 2.52079e-13 5.2849e-47)
(1.32979e-07 -1.68719e-13 -5.29773e-47)
(1.32975e-07 1.95218e-13 -3.13918e-34)
(1.32978e-07 -1.03706e-13 2.43234e-32)
(1.32975e-07 8.86357e-14 -2.95253e-34)
(1.32977e-07 -6.40495e-14 -4.89074e-32)
(1.32976e-07 4.87906e-14 4.87754e-32)
(1.32977e-07 -3.77245e-14 1.69685e-35)
(1.32976e-07 3.37e-14 -2.43765e-32)
(1.32977e-07 -1.27195e-14 3.05434e-35)
(1.32977e-07 3.25198e-14 -2.45184e-32)
(1.1353e-07 1.19221e-10 6.45306e-32)
(1.13987e-07 1.25463e-10 2.38388e-33)
(1.14141e-07 2.12792e-11 0)
(1.1413e-07 9.08729e-12 3.23087e-48)
(1.14171e-07 -3.00458e-13 2.77895e-32)
(1.14145e-07 1.17102e-12 -5.36371e-49)
(1.14165e-07 -6.94529e-13 -2.74021e-44)
(1.14151e-07 4.9914e-13 2.43464e-32)
(1.14161e-07 -4.15182e-13 2.49344e-48)
(1.14153e-07 2.46875e-13 -2.43732e-32)
(1.14159e-07 -1.68077e-13 -4.88635e-32)
(1.14155e-07 1.82911e-13 2.42225e-32)
(1.14158e-07 -1.0164e-13 -1.07787e-43)
(1.14156e-07 8.50198e-14 -3.25291e-43)
(1.14157e-07 -6.18174e-14 2.44168e-32)
(1.14156e-07 4.68425e-14 -2.44043e-32)
(1.14157e-07 -3.62955e-14 2.44401e-32)
(1.14157e-07 3.20207e-14 -1.08393e-43)
(1.14157e-07 -1.35976e-14 1.08512e-43)
(1.14157e-07 2.99813e-14 2.45184e-32)
(9.39255e-08 9.21102e-11 -4.03998e-32)
(9.44129e-08 9.48221e-11 -2.32351e-32)
(9.45568e-08 1.50399e-11 2.12469e-47)
(9.45502e-08 6.88419e-12 -2.89318e-32)
(9.45865e-08 -5.07754e-13 -2.4554e-32)
(9.45642e-08 1.02962e-12 -1.15047e-33)
(9.45816e-08 -6.4566e-13 2.70884e-44)
(9.45689e-08 4.63989e-13 2.35602e-32)
(9.45781e-08 -3.77876e-13 2.49601e-32)
(9.45711e-08 2.32778e-13 -5.28522e-47)
(9.45762e-08 -1.60666e-13 -2.4788e-32)
(9.45726e-08 1.63797e-13 1.84957e-34)
(9.45754e-08 -9.60501e-14 4.89775e-32)
(9.45734e-08 7.83769e-14 2.35863e-34)
(9.45749e-08 -5.74395e-14 -4.87452e-32)
(9.45738e-08 4.34266e-14 0)
(9.45745e-08 -3.38514e-14 -2.12107e-35)
(9.45741e-08 2.92913e-14 2.43714e-32)
(9.45744e-08 -1.42546e-14 -3.73308e-35)
(9.45743e-08 2.64932e-14 -2.45184e-32)
(7.37165e-08 6.4263e-11 -6.87767e-33)
(7.41954e-08 6.41313e-11 -2.3212e-32)
(7.43215e-08 9.28407e-12 1.91857e-32)
(7.43178e-08 4.7586e-12 4.21159e-33)
(7.43483e-08 -6.16499e-13 -5.28744e-32)
(7.43295e-08 8.53606e-13 0)
(7.43442e-08 -5.62356e-13 -1.20562e-33)
(7.43334e-08 4.04922e-13 8.92546e-34)
(7.43413e-08 -3.22792e-13 2.4456e-32)
(7.43353e-08 2.05743e-13 2.43733e-32)
(7.43396e-08 -1.44262e-13 -2.44315e-32)
(7.43366e-08 1.37809e-13 -2.41837e-32)
(7.43389e-08 -8.48094e-14 2.42546e-32)
(7.43373e-08 6.77424e-14 -1.33203e-34)
(7.43385e-08 -4.99568e-14 -2.45194e-32)
(7.43376e-08 3.75876e-14 2.44654e-32)
(7.43382e-08 -2.92448e-14 5.43139e-44)
(7.43378e-08 2.51148e-14 4.41182e-35)
(7.43381e-08 -1.38439e-14 2.44601e-32)
(7.4338e-08 2.16066e-14 -5.4442e-44)
(5.30241e-08 3.78714e-11 0)
(5.34472e-08 3.60315e-11 -1.21037e-31)
(5.35474e-08 4.52665e-12 -2.43041e-32)
(5.35453e-08 2.83469e-12 -1.00052e-32)
(5.35688e-08 -5.90671e-13 0)
(5.35542e-08 6.33416e-13 0)
(5.35656e-08 -4.35014e-13 2.5644e-32)
(5.35572e-08 3.14609e-13 5.42202e-44)
(5.35633e-08 -2.45055e-13 -4.77255e-47)
(5.35586e-08 1.62015e-13 2.11403e-46)
(5.3562e-08 -1.14971e-13 -1.0828e-43)
(5.35597e-08 1.02254e-13 2.45741e-32)
(5.35615e-08 -6.67181e-14 -1.08453e-43)
(5.35602e-08 5.22675e-14 0)
(5.35611e-08 -3.87768e-14 1.37759e-50)
(5.35604e-08 2.91307e-14 -2.44044e-32)
(5.35609e-08 -2.27695e-14 -4.07245e-35)
(5.35606e-08 1.91977e-14 -5.41967e-44)
(5.35608e-08 -1.2235e-14 -2.44109e-32)
(5.35608e-08 1.55019e-14 -5.4442e-44)
(3.19732e-08 1.6421e-11 0)
(3.22837e-08 1.44198e-11 3.79706e-31)
(3.23498e-08 1.3675e-12 -2.43833e-32)
(3.23485e-08 1.28282e-12 -2.31366e-32)
(3.23637e-08 -4.10218e-13 0)
(3.23541e-08 3.68985e-13 -2.42793e-32)
(3.23615e-08 -2.61916e-13 -1.0619e-46)
(3.2356e-08 1.90141e-13 2.43476e-32)
(3.236e-08 -1.45277e-13 2.44556e-32)
(3.2357e-08 9.90568e-14 2.43735e-32)
(3.23592e-08 -7.12986e-14 -1.59504e-34)
(3.23577e-08 5.98883e-14 -2.4391e-32)
(3.23589e-08 -4.06133e-14 -1.08454e-43)
(3.2358e-08 3.13538e-14 1.11109e-46)
(3.23586e-08 -2.32775e-14 -2.44166e-32)
(3.23582e-08 1.75202e-14 4.87952e-32)
(3.23585e-08 -1.35403e-14 -5.09056e-36)
(3.23583e-08 1.14309e-14 -2.44198e-32)
(3.23584e-08 -7.98031e-15 2.43761e-32)
(3.23584e-08 8.65912e-15 -3.32351e-35)
(1.06915e-08 4.20692e-12 -9.51574e-33)
(1.08216e-08 3.43046e-12 1.0898e-31)
(1.08459e-08 2.27725e-13 4.14542e-32)
(1.08451e-08 3.44441e-13 -2.33691e-32)
(1.08507e-08 -1.39111e-13 -1.7057e-32)
(1.08471e-08 1.15939e-13 -2.27342e-34)
(1.08499e-08 -8.35777e-14 1.11119e-34)
(1.08478e-08 6.08865e-14 -7.26396e-35)
(1.08493e-08 -4.60577e-14 1.47251e-46)
(1.08482e-08 3.1913e-14 1.69197e-32)
(1.0849e-08 -2.29484e-14 0)
(1.08484e-08 1.86329e-14 0)
(1.08489e-08 -1.31378e-14 1.64911e-35)
(1.08486e-08 1.00526e-14 0)
(1.08488e-08 -7.50052e-15 -1.694e-32)
(1.08486e-08 5.61064e-15 1.69413e-32)
(1.08487e-08 -4.41127e-15 -1.69472e-32)
(1.08487e-08 3.63239e-15 -1.69378e-32)
(1.08487e-08 -2.75155e-15 3.38915e-32)
(1.08487e-08 2.68964e-15 0)
)
;

boundaryField
{
    top
    {
        type            fixedValue;
        value           uniform (0 0 0);
    }
    bottom
    {
        type            symmetryPlane;
    }
    inlet
    {
        type            pressureInletVelocity;
        value           nonuniform List<vector> 
20
(
(2.69515e-07 0 0)
(2.6787e-07 0 0)
(2.64584e-07 0 0)
(2.5968e-07 0 0)
(2.53185e-07 0 0)
(2.4514e-07 0 0)
(2.3559e-07 0 0)
(2.24592e-07 0 0)
(2.12211e-07 0 0)
(1.98521e-07 0 0)
(1.83603e-07 0 0)
(1.67544e-07 0 0)
(1.50441e-07 0 0)
(1.32395e-07 0 0)
(1.13514e-07 0 0)
(9.39096e-08 0 0)
(7.37007e-08 0 0)
(5.30083e-08 0 0)
(3.19574e-08 0 0)
(1.06805e-08 0 0)
)
;
    }
    outlet
    {
        type            inletOutlet;
        inletValue      uniform (1 0 0);
        value           nonuniform List<vector> 
20
(
(2.68674e-07 1.16381e-15 -2.876e-32)
(2.67052e-07 3.77588e-15 -2.45181e-32)
(2.63817e-07 7.54147e-15 -5.11309e-36)
(2.58987e-07 1.13537e-14 4.90329e-32)
(2.52588e-07 1.5385e-14 1.36349e-35)
(2.44657e-07 1.91451e-14 -2.45088e-32)
(2.35237e-07 2.30846e-14 -2.21567e-35)
(2.24381e-07 2.63611e-14 4.90227e-32)
(2.12149e-07 2.94303e-14 4.90543e-32)
(1.98609e-07 3.16516e-14 1.08883e-43)
(1.83836e-07 3.32448e-14 4.90629e-32)
(1.67913e-07 3.40104e-14 -2.4491e-32)
(1.50929e-07 3.36903e-14 -1.08883e-43)
(1.32977e-07 3.25198e-14 -2.45184e-32)
(1.14157e-07 2.99813e-14 2.45184e-32)
(9.45743e-08 2.64932e-14 -2.45184e-32)
(7.4338e-08 2.16066e-14 -5.4442e-44)
(5.35608e-08 1.55019e-14 -5.4442e-44)
(3.23584e-08 8.65912e-15 -3.32351e-35)
(1.08487e-08 2.68964e-15 0)
)
;
    }
    frontAndBack
    {
        type            empty;
    }
}


// ************************************************************************* //
