/*--------------------------------*- C++ -*----------------------------------*\
| =========                 |                                                 |
| \\      /  F ield         | OpenFOAM: The Open Source CFD Toolbox           |
|  \\    /   O peration     | Version:  5.0                                   |
|   \\  /    A nd           | Web:      www.OpenFOAM.org                      |
|    \\/     M anipulation  |                                                 |
\*---------------------------------------------------------------------------*/
FoamFile
{
    version     2.0;
    format      ascii;
    class       volVectorField;
    location    "3.6";
    object      U;
}
// * * * * * * * * * * * * * * * * * * * * * * * * * * * * * * * * * * * * * //

dimensions      [0 1 -1 0 0 0 0];

internalField   nonuniform List<vector> 
25
(
(1 5.99186e-09 6.46481e-23)
(1 6.39335e-09 3.2324e-23)
(1 1.05235e-08 -3.2324e-23)
(1 1.94296e-08 5.68029e-29)
(1 9.21345e-09 3.26281e-23)
(0.92 1.74901e-08 -2.79794e-23)
(0.92 1.83911e-08 -2.64752e-29)
(0.92 3.02362e-08 5.59588e-23)
(0.92 5.64426e-08 7.0696e-29)
(0.920001 3.12407e-08 -5.64505e-23)
(0.76 2.72467e-08 2.79795e-23)
(0.76 2.73974e-08 2.79795e-23)
(0.76 4.56304e-08 2.79797e-23)
(0.76 8.804e-08 -2.64732e-28)
(0.76 5.54069e-08 -2.82619e-23)
(0.52 2.89957e-08 5.5959e-23)
(0.52 2.77405e-08 2.79796e-23)
(0.52 4.72826e-08 2.55543e-28)
(0.52 9.3249e-08 -2.79794e-23)
(0.52 5.95334e-08 3.32877e-28)
(0.2 1.21304e-08 3.98786e-23)
(0.2 1.1441e-08 1.99393e-23)
(0.2 1.97203e-08 -7.29308e-29)
(0.2 3.88138e-08 0)
(0.2 2.48139e-08 0)
)
;

boundaryField
{
    top
    {
        type            fixedValue;
        value           uniform (0 0 0);
    }
    bottom
    {
        type            symmetryPlane;
    }
    inlet
    {
        type            pressureInletVelocity;
        value           nonuniform 0();
    }
    outlet
    {
        type            inletOutlet;
        inletValue      uniform (1 0 0);
        value           nonuniform List<vector> 5((1 9.21345e-09 3.26281e-23) (0.920001 3.12407e-08 -5.64505e-23) (0.76 5.54069e-08 -2.82619e-23) (0.52 5.95334e-08 3.32877e-28) (0.2 2.48139e-08 0));
    }
    frontAndBack
    {
        type            empty;
    }
    procBoundary1to0
    {
        type            processor;
        value           nonuniform List<vector> 5((1 -1.4186e-09 4.49044e-30) (0.92 -4.58402e-09 -2.79794e-23) (0.76 -8.14278e-09 -5.59588e-23) (0.52 -8.86123e-09 5.59587e-23) (0.2 -3.64625e-09 3.98787e-23));
    }
}


// ************************************************************************* //
