/*--------------------------------*- C++ -*----------------------------------*\
| =========                 |                                                 |
| \\      /  F ield         | OpenFOAM: The Open Source CFD Toolbox           |
|  \\    /   O peration     | Version:  5.0                                   |
|   \\  /    A nd           | Web:      www.OpenFOAM.org                      |
|    \\/     M anipulation  |                                                 |
\*---------------------------------------------------------------------------*/
FoamFile
{
    version     2.0;
    format      ascii;
    class       volScalarField;
    location    "0.2";
    object      p;
}
// * * * * * * * * * * * * * * * * * * * * * * * * * * * * * * * * * * * * * //

dimensions      [0 2 -2 0 0 0 0];

internalField   nonuniform List<scalar> 
100
(
3.97699e-08
4.27315e-08
2.10876e-08
2.00292e-08
3.56856e-09
-5.85177e-10
-1.73099e-08
-1.81132e-08
-4.02893e-08
-3.71325e-08
3.97438e-08
4.26726e-08
2.10722e-08
2.00448e-08
3.55394e-09
-5.76765e-10
-1.73196e-08
-1.80979e-08
-4.02439e-08
-3.71164e-08
3.98788e-08
4.27309e-08
2.10379e-08
2.00746e-08
3.52806e-09
-5.56333e-10
-1.73444e-08
-1.80637e-08
-4.03068e-08
-3.72458e-08
4.00642e-08
4.28623e-08
2.10114e-08
2.00985e-08
3.50797e-09
-5.41906e-10
-1.73628e-08
-1.80388e-08
-4.04305e-08
-3.74141e-08
4.01743e-08
4.29515e-08
2.09988e-08
2.01112e-08
3.49667e-09
-5.35968e-10
-1.73699e-08
-1.80288e-08
-4.0508e-08
-3.75064e-08
4.0184e-08
4.29638e-08
2.09966e-08
2.01151e-08
3.4932e-09
-5.38499e-10
-1.73672e-08
-1.80303e-08
-4.05088e-08
-3.75013e-08
4.00741e-08
4.2881e-08
2.10065e-08
2.01086e-08
3.49759e-09
-5.4854e-10
-1.73547e-08
-1.80436e-08
-4.04208e-08
-3.73862e-08
3.9899e-08
4.27637e-08
2.10299e-08
2.00919e-08
3.51127e-09
-5.68228e-10
-1.73313e-08
-1.80705e-08
-4.03039e-08
-3.72156e-08
3.97523e-08
4.26973e-08
2.10635e-08
2.00683e-08
3.5309e-09
-5.93704e-10
-1.73016e-08
-1.81061e-08
-4.02436e-08
-3.70824e-08
3.97706e-08
4.27501e-08
2.10785e-08
2.00599e-08
3.53971e-09
-6.08551e-10
-1.72872e-08
-1.81213e-08
-4.03038e-08
-3.71101e-08
)
;

boundaryField
{
    top
    {
        type            zeroGradient;
    }
    bottom
    {
        type            zeroGradient;
    }
    inlet
    {
        type            fixedValue;
        value           uniform 0;
    }
    outlet
    {
        type            fixedValue;
        value           uniform 0;
    }
    frontAndBack
    {
        type            empty;
    }
}


// ************************************************************************* //
