/*--------------------------------*- C++ -*----------------------------------*\
| =========                 |                                                 |
| \\      /  F ield         | OpenFOAM: The Open Source CFD Toolbox           |
|  \\    /   O peration     | Version:  5.0                                   |
|   \\  /    A nd           | Web:      www.OpenFOAM.org                      |
|    \\/     M anipulation  |                                                 |
\*---------------------------------------------------------------------------*/
FoamFile
{
    version     2.0;
    format      ascii;
    class       surfaceScalarField;
    location    "0.2";
    object      phi;
}
// * * * * * * * * * * * * * * * * * * * * * * * * * * * * * * * * * * * * * //

dimensions      [0 3 -1 0 0 0 0];

internalField   nonuniform List<scalar> 
180
(
4.99967e-07
-2.42217e-14
4.99967e-07
-1.34513e-14
4.99967e-07
4.26041e-15
4.99967e-07
-3.07255e-15
4.99967e-07
2.37305e-15
4.99967e-07
-2.64366e-15
4.99967e-07
3.38627e-15
4.99967e-07
-4.38946e-15
4.99967e-07
1.26703e-14
2.20509e-14
1.49991e-06
-4.83516e-14
1.49991e-06
-2.97305e-14
1.49991e-06
7.33657e-15
1.49991e-06
-5.08953e-15
1.49991e-06
3.87959e-15
1.49991e-06
-4.7436e-15
1.49991e-06
6.01481e-15
1.49991e-06
-7.50255e-15
1.49991e-06
2.71226e-14
4.32174e-14
2.49985e-06
-5.27765e-14
2.49985e-06
-3.5279e-14
2.49985e-06
6.91716e-15
2.49985e-06
-4.41418e-15
2.49985e-06
3.28363e-15
2.49985e-06
-4.764e-15
2.49985e-06
5.9192e-15
2.49985e-06
-6.9266e-15
2.49985e-06
3.06903e-14
4.56395e-14
3.49982e-06
-3.46809e-14
3.49982e-06
-2.43426e-14
3.49982e-06
4.13744e-15
3.49982e-06
-1.93146e-15
3.49982e-06
1.4395e-15
3.49982e-06
-3.42006e-15
3.49982e-06
3.88777e-15
3.49982e-06
-3.91311e-15
3.49982e-06
1.86943e-14
2.73223e-14
4.4998e-06
-3.64719e-15
4.4998e-06
-3.39151e-15
4.4998e-06
2.73501e-16
4.4998e-06
1.21638e-15
4.4998e-06
-9.01768e-16
4.4998e-06
-1.18203e-15
4.4998e-06
7.83919e-16
4.4998e-06
2.09366e-16
4.4998e-06
-2.22598e-15
-2.36451e-15
5.4998e-06
2.88406e-14
5.4998e-06
1.89064e-14
5.4998e-06
-3.70392e-15
5.4998e-06
4.21642e-15
5.4998e-06
-3.07689e-15
5.4998e-06
1.21371e-15
5.4998e-06
-2.4665e-15
5.4998e-06
4.33145e-15
5.4998e-06
-2.33658e-14
-3.22901e-14
6.49982e-06
4.78562e-14
6.49982e-06
3.07165e-14
6.49982e-06
-6.55502e-15
6.49982e-06
6.03356e-15
6.49982e-06
-4.48719e-15
6.49982e-06
3.19926e-15
6.49982e-06
-4.87084e-15
6.49982e-06
7.20414e-15
6.49982e-06
-3.36176e-14
-4.87288e-14
7.49985e-06
4.61262e-14
7.49985e-06
2.76754e-14
7.49985e-06
-7.18171e-15
7.49985e-06
6.0159e-15
7.49985e-06
-4.53543e-15
7.49985e-06
3.86392e-15
7.49985e-06
-5.44229e-15
7.49985e-06
7.67333e-15
7.49985e-06
-2.9053e-14
-4.52446e-14
8.49991e-06
2.33774e-14
8.49991e-06
1.26822e-14
8.49991e-06
-4.20451e-15
8.49991e-06
3.33064e-15
8.49991e-06
-2.56929e-15
8.49991e-06
2.40218e-15
8.49991e-06
-3.21203e-15
8.49991e-06
4.42919e-15
8.49991e-06
-1.30585e-14
-2.2443e-14
9.49997e-06
9.49997e-06
9.49997e-06
9.49997e-06
9.49997e-06
9.49997e-06
9.49997e-06
9.49997e-06
9.49997e-06
)
;

boundaryField
{
    top
    {
        type            calculated;
        value           uniform 0;
    }
    bottom
    {
        type            calculated;
        value           uniform 0;
    }
    inlet
    {
        type            calculated;
        value           nonuniform List<scalar> 10(-4.99967e-07 -1.49991e-06 -2.49985e-06 -3.49982e-06 -4.4998e-06 -5.4998e-06 -6.49982e-06 -7.49985e-06 -8.49991e-06 -9.49997e-06);
    }
    outlet
    {
        type            calculated;
        value           nonuniform List<scalar> 10(4.99967e-07 1.49991e-06 2.49985e-06 3.49982e-06 4.4998e-06 5.4998e-06 6.49982e-06 7.49985e-06 8.49991e-06 9.49997e-06);
    }
    frontAndBack
    {
        type            empty;
        value           nonuniform 0();
    }
}


// ************************************************************************* //
