/*--------------------------------*- C++ -*----------------------------------*\
| =========                 |                                                 |
| \\      /  F ield         | OpenFOAM: The Open Source CFD Toolbox           |
|  \\    /   O peration     | Version:  5.0                                   |
|   \\  /    A nd           | Web:      www.OpenFOAM.org                      |
|    \\/     M anipulation  |                                                 |
\*---------------------------------------------------------------------------*/
FoamFile
{
    version     2.0;
    format      ascii;
    class       volVectorField;
    location    "2.5";
    object      U;
}
// * * * * * * * * * * * * * * * * * * * * * * * * * * * * * * * * * * * * * //

dimensions      [0 1 -1 0 0 0 0];

internalField   nonuniform List<vector> 
25
(
(1 5.14209e-09 6.46481e-23)
(1 4.95682e-10 3.23241e-23)
(1 -2.14304e-09 -3.23241e-23)
(1 -1.38904e-08 -1.00482e-28)
(1 -3.48627e-09 3.2628e-23)
(0.92 1.37431e-08 -2.79794e-23)
(0.92 3.51712e-09 2.20981e-29)
(0.92 -1.08268e-08 5.59588e-23)
(0.92 -3.77305e-08 -4.90516e-29)
(0.92 -1.54922e-08 -5.64506e-23)
(0.76 2.1081e-08 2.79795e-23)
(0.76 8.81897e-09 2.79795e-23)
(0.76 -2.86396e-08 2.79793e-23)
(0.76 -5.83285e-08 1.42098e-28)
(0.76 -3.57768e-08 -2.82621e-23)
(0.52 2.3758e-08 5.5959e-23)
(0.52 9.63466e-09 2.79795e-23)
(0.52 -3.84822e-08 -2.86478e-28)
(0.52 -6.52691e-08 -2.79794e-23)
(0.52 -4.35441e-08 -2.79806e-28)
(0.2 1.01556e-08 3.98787e-23)
(0.2 3.80996e-09 1.99394e-23)
(0.2 -1.73337e-08 8.80285e-29)
(0.2 -2.78119e-08 0)
(0.2 -1.88484e-08 0)
)
;

boundaryField
{
    top
    {
        type            fixedValue;
        value           uniform (0 0 0);
    }
    bottom
    {
        type            symmetryPlane;
    }
    inlet
    {
        type            pressureInletVelocity;
        value           nonuniform 0();
    }
    outlet
    {
        type            inletOutlet;
        inletValue      uniform (1 0 0);
        value           nonuniform List<vector> 5((1 -3.48627e-09 3.2628e-23) (0.92 -1.54922e-08 -5.64506e-23) (0.76 -3.57768e-08 -2.82621e-23) (0.52 -4.35441e-08 -2.79806e-28) (0.2 -1.88484e-08 0));
    }
    frontAndBack
    {
        type            empty;
    }
    procBoundary1to0
    {
        type            processor;
        value           nonuniform List<vector> 5((1 -8.50038e-10 -6.21208e-29) (0.92 3.23538e-09 -2.79794e-23) (0.76 1.87053e-08 -5.59588e-23) (0.52 2.80366e-08 5.5959e-23) (0.2 1.28286e-08 3.98787e-23));
    }
}


// ************************************************************************* //
