/*--------------------------------*- C++ -*----------------------------------*\
| =========                 |                                                 |
| \\      /  F ield         | OpenFOAM: The Open Source CFD Toolbox           |
|  \\    /   O peration     | Version:  5.0                                   |
|   \\  /    A nd           | Web:      www.OpenFOAM.org                      |
|    \\/     M anipulation  |                                                 |
\*---------------------------------------------------------------------------*/
FoamFile
{
    version     2.0;
    format      ascii;
    class       surfaceScalarField;
    location    "102";
    object      phi;
}
// * * * * * * * * * * * * * * * * * * * * * * * * * * * * * * * * * * * * * //

dimensions      [0 3 -1 0 0 0 0];

internalField   nonuniform List<scalar> 
3052
(
-3.88302e-19
-5.99964e-19
-3.59516e-19
-7.73464e-20
1.50645e-18
-1.9763e-18
3.09054e-18
-1.71082e-18
4.28348e-18
-1.26698e-18
5.86539e-18
-1.65449e-18
7.59245e-18
-1.79379e-18
9.27943e-18
-1.74867e-18
1.09679e-17
-1.75403e-18
1.26712e-17
-1.76651e-18
1.43374e-17
-1.72634e-18
1.5938e-17
-1.65691e-18
1.74521e-17
-1.56737e-18
1.88652e-17
-1.46313e-18
2.016e-17
-1.34634e-18
2.1328e-17
-1.21758e-18
2.2348e-17
-1.07005e-18
2.32143e-17
-9.12946e-19
2.39213e-17
-7.53405e-19
2.44878e-17
-6.0729e-19
2.4892e-17
-4.43322e-19
2.51431e-17
-2.81801e-19
2.52306e-17
-1.14398e-19
2.51791e-17
3.43303e-20
2.49651e-17
1.98123e-19
2.46151e-17
3.40538e-19
2.4121e-17
4.84441e-19
2.35301e-17
5.88501e-19
2.28307e-17
6.96504e-19
2.20671e-17
7.68339e-19
2.12123e-17
8.65817e-19
2.03078e-17
9.32222e-19
1.93374e-17
1.00864e-18
1.8342e-17
1.04587e-18
1.73021e-17
1.09362e-18
1.62588e-17
1.10333e-18
1.51852e-17
1.13202e-18
1.41205e-17
1.12626e-18
1.30463e-17
1.133e-18
1.19872e-17
1.1163e-18
1.09292e-17
1.1062e-18
9.9032e-18
1.07192e-18
8.89151e-18
1.05253e-18
7.91538e-18
1.01819e-18
6.96463e-18
9.92968e-19
6.05512e-18
9.54236e-19
5.18164e-18
9.19149e-19
4.35531e-18
8.73413e-19
3.56532e-18
8.34177e-19
2.83464e-18
7.78954e-19
2.14575e-18
7.31154e-19
1.52406e-18
6.50751e-19
1.0293e-18
5.58616e-19
4.13395e-19
6.14143e-19
1.46656e-19
2.73498e-19
1.46401e-19
8.06599e-19
-1.42596e-18
1.46813e-18
-9.91734e-19
1.47827e-18
-2.41458e-18
2.19118e-18
-2.60939e-18
3.72856e-18
-3.03048e-18
5.11534e-18
-3.23059e-18
6.49611e-18
-3.32549e-18
7.99168e-18
-3.39469e-18
9.51041e-18
-3.41893e-18
1.09941e-17
-3.39722e-18
1.24489e-17
-3.31663e-18
1.38573e-17
-3.18921e-18
1.51948e-17
-3.02093e-18
1.64357e-17
-2.8251e-18
1.75731e-17
-2.59737e-18
1.85873e-17
-2.34618e-18
1.94811e-17
-2.0687e-18
2.02427e-17
-1.77871e-18
2.08786e-17
-1.47878e-18
2.1367e-17
-1.18258e-18
2.17244e-17
-8.69156e-19
2.19362e-17
-5.56382e-19
2.20193e-17
-2.37648e-19
2.19541e-17
6.1524e-20
2.1768e-17
3.63447e-19
2.14468e-17
6.40103e-19
2.10265e-17
8.99544e-19
2.04936e-17
1.11388e-18
1.98845e-17
1.31587e-18
1.91822e-17
1.49106e-18
1.84305e-17
1.67237e-18
1.76202e-17
1.81823e-18
1.67835e-17
1.95377e-18
1.58996e-17
2.04839e-18
1.49982e-17
2.13059e-18
1.40623e-17
2.17059e-18
1.31316e-17
2.20407e-18
1.21869e-17
2.20406e-18
1.12547e-17
2.19648e-18
1.03218e-17
2.16145e-18
9.40899e-18
2.12646e-18
8.49805e-18
2.07214e-18
7.61897e-18
2.02254e-18
6.76366e-18
1.96136e-18
5.94578e-18
1.90512e-18
5.15694e-18
1.83932e-18
4.40633e-18
1.7708e-18
3.68888e-18
1.68797e-18
3.02438e-18
1.61014e-18
2.39137e-18
1.50758e-18
1.80435e-18
1.40564e-18
1.2858e-18
1.29889e-18
7.50692e-19
1.08044e-18
5.05946e-19
9.39743e-19
1.49694e-19
5.9132e-19
2.93871e-19
-3.92789e-19
-1.09594e-18
3.8885e-19
-2.01217e-18
1.09949e-18
-3.1922e-18
2.02048e-18
-3.70728e-18
3.01732e-18
-4.12918e-18
4.19495e-18
-4.45333e-18
5.42612e-18
-4.58621e-18
6.7057e-18
-4.69571e-18
8.00981e-18
-4.74645e-18
9.30501e-18
-4.70396e-18
1.0566e-17
-4.58304e-18
1.17737e-17
-4.40428e-18
1.29188e-17
-4.17937e-18
1.39885e-17
-3.90255e-18
1.49642e-17
-3.58276e-18
1.58392e-17
-3.22482e-18
1.66067e-17
-2.83975e-18
1.72626e-17
-2.43029e-18
1.77982e-17
-2.01221e-18
1.82099e-17
-1.58516e-18
1.84983e-17
-1.15265e-18
1.86677e-17
-7.13672e-19
1.87172e-17
-2.81816e-19
1.86502e-17
1.41044e-19
1.84751e-17
5.45799e-19
1.82008e-17
9.28423e-19
1.78324e-17
1.27481e-18
1.73736e-17
1.58639e-18
1.6833e-17
1.86408e-18
1.62244e-17
2.11371e-18
1.5566e-17
2.33982e-18
1.48616e-17
2.53881e-18
1.41191e-17
2.70336e-18
1.33467e-17
2.82986e-18
1.25569e-17
2.92103e-18
1.17535e-17
2.98149e-18
1.09445e-17
3.01307e-18
1.01346e-17
3.01716e-18
9.33092e-18
2.99758e-18
8.53461e-18
2.95771e-18
7.75292e-18
2.8986e-18
6.99114e-18
2.83033e-18
6.25174e-18
2.7552e-18
5.53484e-18
2.67501e-18
4.84728e-18
2.58784e-18
4.19007e-18
2.49556e-18
3.56455e-18
2.39654e-18
2.97299e-18
2.29101e-18
2.41832e-18
2.17301e-18
1.90697e-18
2.04907e-18
1.43353e-18
1.89466e-18
9.89151e-19
1.70001e-18
6.52795e-19
1.52401e-18
2.84618e-19
1.20645e-18
5.66564e-20
8.23172e-19
3.50423e-19
-3.2741e-19
-7.75306e-19
4.15499e-19
-2.73337e-18
7.89426e-19
-3.61829e-18
1.49366e-18
-4.43691e-18
2.4057e-18
-5.034e-18
3.35535e-18
-5.3605e-18
4.38573e-18
-5.56261e-18
5.47044e-18
-5.72443e-18
6.5708e-18
-5.77841e-18
7.65645e-18
-5.71734e-18
8.71565e-18
-5.57705e-18
9.73385e-18
-5.36383e-18
1.06953e-17
-5.08236e-18
1.1589e-17
-4.73929e-18
1.24059e-17
-4.34106e-18
1.31374e-17
-3.89748e-18
1.37766e-17
-3.41822e-18
1.43179e-17
-2.91337e-18
1.47568e-17
-2.39267e-18
1.50877e-17
-1.86279e-18
1.5313e-17
-1.32693e-18
1.54326e-17
-7.92268e-19
1.54536e-17
-2.65487e-19
1.53775e-17
2.46721e-19
1.52142e-17
7.37545e-19
1.49661e-17
1.198e-18
1.46428e-17
1.6193e-18
1.42433e-17
1.99712e-18
1.37811e-17
2.33293e-18
1.32571e-17
2.63078e-18
1.26875e-17
2.88975e-18
1.20733e-17
3.10767e-18
1.1432e-17
3.28463e-18
1.07636e-17
3.42287e-18
1.00847e-17
3.52323e-18
9.39436e-18
3.58917e-18
8.70735e-18
3.62004e-18
8.02234e-18
3.62102e-18
7.34977e-18
3.5937e-18
6.69064e-18
3.54332e-18
6.05219e-18
3.47497e-18
5.43174e-18
3.39247e-18
4.83546e-18
3.29667e-18
4.26173e-18
3.19207e-18
3.71378e-18
3.08045e-18
3.19098e-18
2.96379e-18
2.69774e-18
2.8397e-18
2.235e-18
2.71003e-18
1.80995e-18
2.57509e-18
1.40989e-18
2.412e-18
1.04025e-18
2.22967e-18
7.31203e-19
2.05804e-18
3.98774e-19
1.72452e-18
2.55001e-19
1.41594e-18
1.15002e-19
9.29514e-19
4.63974e-19
2.4471e-19
-1.00776e-18
2.84109e-19
-2.7082e-18
6.49948e-19
-3.97343e-18
1.1446e-18
-4.91992e-18
1.81554e-18
-5.65439e-18
2.57527e-18
-6.07776e-18
3.40951e-18
-6.3667e-18
4.2848e-18
-6.56286e-18
5.17371e-18
-6.62103e-18
6.05762e-18
-6.55695e-18
6.91509e-18
-6.39499e-18
7.73634e-18
-6.14779e-18
8.51286e-18
-5.82055e-18
9.23363e-18
-5.42064e-18
9.88985e-18
-4.95663e-18
1.04761e-17
-4.44248e-18
1.09843e-17
-3.88656e-18
1.14107e-17
-3.30145e-18
1.17501e-17
-2.69633e-18
1.20017e-17
-2.08034e-18
1.2163e-17
-1.45965e-18
1.22378e-17
-8.42295e-19
1.22272e-17
-2.35168e-19
1.21388e-17
3.52432e-19
1.19761e-17
9.13898e-19
1.17484e-17
1.43912e-18
1.14564e-17
1.92018e-18
1.11087e-17
2.35278e-18
1.0708e-17
2.73616e-18
1.02639e-17
3.07023e-18
9.77853e-18
3.35483e-18
9.26062e-18
3.59334e-18
8.71413e-18
3.78519e-18
8.15426e-18
3.93256e-18
7.58609e-18
4.0364e-18
7.0192e-18
4.10126e-18
6.45492e-18
4.12778e-18
5.90175e-18
4.12039e-18
5.36065e-18
4.08437e-18
4.83885e-18
4.02287e-18
4.33895e-18
3.93881e-18
3.86449e-18
3.83637e-18
3.41048e-18
3.72126e-18
2.9792e-18
3.59505e-18
2.56996e-18
3.46125e-18
2.18577e-18
3.32109e-18
1.82784e-18
3.17581e-18
1.50024e-18
3.02387e-18
1.19963e-18
2.86085e-18
9.30282e-19
2.68867e-18
6.86419e-19
2.4829e-18
4.48566e-19
2.212e-18
2.98445e-19
1.97122e-18
8.05424e-20
1.55083e-18
-4.55417e-20
1.06302e-18
4.19345e-19
1.54363e-19
-1.13113e-18
2.1589e-19
-2.74383e-18
4.52469e-19
-4.1819e-18
8.54307e-19
-5.27578e-18
1.32916e-18
-6.10915e-18
1.88643e-18
-6.64034e-18
2.51165e-18
-7.00298e-18
3.16954e-18
-7.22486e-18
3.83958e-18
-7.29296e-18
4.51111e-18
-7.23077e-18
5.16827e-18
-7.05556e-18
5.80005e-18
-6.78145e-18
6.39553e-18
-6.41546e-18
6.94534e-18
-5.9673e-18
7.44427e-18
-5.4506e-18
7.88408e-18
-4.87794e-18
8.26061e-18
-4.25976e-18
8.56902e-18
-3.60796e-18
8.80793e-18
-2.93318e-18
8.97364e-18
-2.24548e-18
9.06872e-18
-1.55376e-18
9.0933e-18
-8.6681e-19
9.05215e-18
-1.93732e-19
8.94727e-18
4.56059e-19
8.78596e-18
1.07488e-18
8.57054e-18
1.65343e-18
8.30785e-18
2.18443e-18
8.0004e-18
2.66325e-18
7.65501e-18
3.08667e-18
7.27538e-18
3.45367e-18
6.86902e-18
3.7644e-18
6.44052e-18
4.02025e-18
5.99966e-18
4.22392e-18
5.55121e-18
4.37655e-18
5.10196e-18
4.48087e-18
4.65616e-18
4.54003e-18
4.22047e-18
4.55797e-18
3.79705e-18
4.53855e-18
3.3919e-18
4.48706e-18
3.0072e-18
4.40791e-18
2.64624e-18
4.30478e-18
2.30766e-18
4.18237e-18
1.99339e-18
4.04527e-18
1.70198e-18
3.89638e-18
1.43488e-18
3.73954e-18
1.19223e-18
3.57693e-18
9.7568e-19
3.40755e-18
7.84236e-19
3.23313e-18
6.21939e-19
3.05432e-18
4.78732e-19
2.84717e-18
3.45751e-19
2.61507e-18
2.45845e-19
2.38666e-18
1.04204e-19
2.02171e-18
7.67492e-20
1.61877e-18
4.07208e-20
1.09488e-18
4.59672e-19
-1.9986e-21
-1.12325e-18
1.42568e-19
-2.8501e-18
3.32432e-19
-4.33191e-18
5.90233e-19
-5.51222e-18
8.81764e-19
-6.40001e-18
1.24156e-18
-7.01474e-18
1.66024e-18
-7.43665e-18
2.11029e-18
-7.68646e-18
2.57687e-18
-7.76898e-18
3.04754e-18
-7.71109e-18
3.50987e-18
-7.52798e-18
3.95384e-18
-7.23404e-18
4.37081e-18
-6.83885e-18
4.75445e-18
-6.35526e-18
5.09795e-18
-5.798e-18
5.39537e-18
-5.17915e-18
5.64231e-18
-4.5114e-18
5.83622e-18
-3.80653e-18
5.97467e-18
-3.07726e-18
6.05789e-18
-2.33344e-18
6.08647e-18
-1.58645e-18
6.06266e-18
-8.46096e-19
5.98831e-18
-1.22989e-19
5.86706e-18
5.74363e-19
5.70242e-18
1.23589e-18
5.49965e-18
1.85438e-18
5.26233e-18
2.42124e-18
4.99581e-18
2.93202e-18
4.70319e-18
3.3831e-18
4.38993e-18
3.77324e-18
4.05956e-18
4.10074e-18
3.71938e-18
4.36797e-18
3.37382e-18
4.57607e-18
3.02908e-18
4.72728e-18
2.68911e-18
4.82495e-18
2.3599e-18
4.87406e-18
2.04491e-18
4.87743e-18
1.74771e-18
4.84105e-18
1.47136e-18
4.76915e-18
1.21927e-18
4.6679e-18
9.92076e-19
4.5416e-18
7.90657e-19
4.39569e-18
6.14155e-19
4.23385e-18
4.62372e-19
4.06098e-18
3.34936e-19
3.88074e-18
2.31513e-19
3.69553e-18
1.50728e-19
3.50596e-18
9.41716e-20
3.31243e-18
5.70325e-20
3.10908e-18
3.50102e-20
2.89706e-18
2.71901e-20
2.65871e-18
6.73907e-21
2.35451e-18
2.10888e-20
2.05094e-18
-2.79011e-20
1.62624e-18
-2.02671e-20
1.08029e-18
4.39005e-19
-9.00366e-21
-1.10035e-18
7.56431e-20
-2.90461e-18
1.71883e-19
-4.40381e-18
2.8801e-19
-5.61485e-18
4.28699e-19
-6.54313e-18
6.23481e-19
-7.21562e-18
8.59824e-19
-7.67686e-18
1.12026e-18
-7.94981e-18
1.39804e-18
-8.0485e-18
1.67891e-18
-7.99528e-18
1.95557e-18
-7.80826e-18
2.21895e-18
-7.50068e-18
2.464e-18
-7.08587e-18
2.68541e-18
-6.57777e-18
2.87782e-18
-5.99112e-18
3.03696e-18
-5.3391e-18
3.16004e-18
-4.63502e-18
3.24425e-18
-3.89214e-18
3.28875e-18
-3.12291e-18
3.29349e-18
-2.33916e-18
3.25946e-18
-1.5532e-18
3.18812e-18
-7.75538e-19
3.08176e-18
-1.70904e-20
2.94295e-18
7.11882e-19
2.77588e-18
1.40184e-18
2.58439e-18
2.04451e-18
2.37256e-18
2.63298e-18
2.1435e-18
3.16152e-18
1.90181e-18
3.62697e-18
1.65035e-18
4.02678e-18
1.3936e-18
4.36055e-18
1.13489e-18
4.62834e-18
8.79384e-19
4.83238e-18
6.31401e-19
4.97458e-18
3.96412e-19
5.05947e-18
1.77777e-19
5.09181e-18
-2.11697e-20
5.07588e-18
-1.98272e-19
5.01766e-18
-3.50537e-19
4.92188e-18
-4.7616e-19
4.79478e-18
-5.74012e-19
4.64235e-18
-6.44814e-19
4.46969e-18
-6.8933e-19
4.28208e-18
-7.08907e-19
4.08427e-18
-7.04533e-19
3.88071e-18
-6.77105e-19
3.67402e-18
-6.27165e-19
3.46528e-18
-5.57783e-19
3.25471e-18
-4.71744e-19
3.04169e-18
-3.73842e-19
2.81246e-18
-2.80552e-19
2.55891e-18
-1.90109e-19
2.29525e-18
-1.39622e-19
1.9435e-18
-5.58343e-20
1.5302e-18
-2.91131e-21
1.01621e-18
4.35388e-19
9.48839e-21
-1.1031e-18
2.59856e-21
-2.87092e-18
4.0832e-22
-4.38263e-18
-3.17798e-21
-5.60432e-18
1.32506e-20
-6.55786e-18
5.88937e-20
-7.26158e-18
1.27011e-19
-7.74641e-18
2.143e-19
-8.03747e-18
3.1511e-19
-8.15192e-18
4.16642e-19
-8.10078e-18
5.1641e-19
-7.91226e-18
6.10563e-19
-7.59821e-18
6.94323e-19
-7.17234e-18
7.62825e-19
-6.64927e-18
8.13144e-19
-6.04402e-18
8.42461e-19
-5.37062e-18
8.48298e-19
-4.64312e-18
8.29531e-19
-3.87536e-18
7.8544e-19
-3.08077e-18
7.1646e-19
-2.27216e-18
6.23088e-19
-1.46171e-18
5.07197e-19
-6.61305e-19
3.70292e-19
1.17644e-19
2.15677e-19
8.64303e-19
4.5957e-20
1.569e-18
-1.34707e-19
2.2234e-18
-3.23433e-19
2.82063e-18
-5.16586e-19
3.35536e-18
-7.11674e-19
3.82307e-18
-9.05014e-19
4.22209e-18
-1.09387e-18
4.55085e-18
-1.27485e-18
4.81056e-18
-1.44499e-18
5.00275e-18
-1.59995e-18
5.13026e-18
-1.7356e-18
5.19574e-18
-1.84872e-18
5.20597e-18
-1.93906e-18
5.16726e-18
-2.00204e-18
5.08246e-18
-2.03696e-18
4.959e-18
-2.04295e-18
4.80398e-18
-2.02022e-18
4.62301e-18
-1.96895e-18
4.42252e-18
-1.89088e-18
4.20808e-18
-1.78758e-18
3.985e-18
-1.66047e-18
3.75824e-18
-1.51067e-18
3.53149e-18
-1.34045e-18
3.30565e-18
-1.15207e-18
3.08127e-18
-9.52719e-19
2.85511e-18
-7.50921e-19
2.62367e-18
-5.51064e-19
2.38052e-18
-3.78623e-19
2.0949e-18
-2.27934e-19
1.78171e-18
-1.27047e-19
1.41037e-18
-5.96237e-20
9.29335e-19
3.74924e-19
-1.8892e-20
-1.07432e-18
-7.39703e-20
-2.79519e-18
-1.53132e-19
-4.28754e-18
-2.48698e-19
-5.49865e-18
-3.48023e-19
-6.45421e-18
-4.41122e-19
-7.16813e-18
-5.23164e-19
-7.66538e-18
-5.98927e-19
-7.96558e-18
-6.71004e-19
-8.08603e-18
-7.33318e-19
-8.04495e-18
-7.91843e-19
-7.8599e-18
-8.51857e-19
-7.54366e-18
-9.16484e-19
-7.11359e-18
-9.87743e-19
-6.58356e-18
-1.06813e-18
-5.96932e-18
-1.15865e-18
-5.28541e-18
-1.26068e-18
-4.54616e-18
-1.37424e-18
-3.76648e-18
-1.4999e-18
-2.9596e-18
-1.63698e-18
-2.1394e-18
-1.78447e-18
-1.31824e-18
-1.94092e-18
-5.0944e-19
-2.10457e-18
2.76589e-19
-2.27337e-18
1.02771e-18
-2.44424e-18
1.73475e-18
-2.61405e-18
2.38899e-18
-2.77966e-18
2.98436e-18
-2.93853e-18
3.5146e-18
-3.08831e-18
3.97553e-18
-3.22697e-18
4.36422e-18
-3.35235e-18
4.67987e-18
-3.46151e-18
4.92287e-18
-3.55049e-18
5.09543e-18
-3.6181e-18
5.20185e-18
-3.66366e-18
5.24596e-18
-3.68168e-18
5.22869e-18
-3.66911e-18
5.16012e-18
-3.62688e-18
5.04613e-18
-3.5545e-18
4.89327e-18
-3.45188e-18
4.70797e-18
-3.31892e-18
4.49731e-18
-3.15673e-18
4.26787e-18
-2.96711e-18
4.02614e-18
-2.75211e-18
3.778e-18
-2.51337e-18
3.52888e-18
-2.25296e-18
3.28214e-18
-1.97278e-18
3.04053e-18
-1.67865e-18
2.80423e-18
-1.3784e-18
2.57285e-18
-1.07819e-18
2.34155e-18
-7.92797e-19
2.09688e-18
-5.39082e-19
1.84436e-18
-3.29469e-19
1.55975e-18
-1.67383e-19
1.20643e-18
-4.85205e-20
8.07584e-19
3.26052e-19
-4.52703e-20
-1.02289e-18
-1.35142e-19
-2.68117e-18
-2.79222e-19
-4.12291e-18
-4.60848e-19
-5.30282e-18
-6.68019e-19
-6.24126e-18
-8.85073e-19
-6.94976e-18
-1.1041e-18
-7.44811e-18
-1.32218e-18
-7.75186e-18
-1.53625e-18
-7.87738e-18
-1.74401e-18
-7.84333e-18
-1.94797e-18
-7.66134e-18
-2.14865e-18
-7.34874e-18
-2.34779e-18
-6.92035e-18
-2.54569e-18
-6.39173e-18
-2.74324e-18
-5.77764e-18
-2.94128e-18
-5.09327e-18
-3.13976e-18
-4.35335e-18
-3.33864e-18
-3.57319e-18
-3.53703e-18
-2.76646e-18
-3.73411e-18
-1.94715e-18
-3.92896e-18
-1.1288e-18
-4.12058e-18
-3.23959e-19
-4.30698e-18
4.54855e-19
-4.48573e-18
1.19744e-18
-4.65444e-18
1.89466e-18
-4.81081e-18
2.5394e-18
-4.9526e-18
3.1245e-18
-5.07823e-18
3.64257e-18
-5.18613e-18
4.08758e-18
-5.27405e-18
4.4569e-18
-5.34043e-18
4.75071e-18
-5.38316e-18
4.97005e-18
-5.4003e-18
5.11722e-18
-5.38834e-18
5.19483e-18
-5.34613e-18
5.2086e-18
-5.27543e-18
5.16336e-18
-5.17317e-18
5.06386e-18
-5.03827e-18
4.91798e-18
-4.87101e-18
4.73297e-18
-4.67173e-18
4.5162e-18
-4.44135e-18
4.27477e-18
-4.18117e-18
4.01593e-18
-3.89324e-18
3.74684e-18
-3.57991e-18
3.47397e-18
-3.24381e-18
3.20272e-18
-2.88712e-18
2.93796e-18
-2.51354e-18
2.68219e-18
-2.12815e-18
2.43736e-18
-1.74011e-18
2.20237e-18
-1.36075e-18
1.97338e-18
-9.97419e-19
1.75195e-18
-6.7255e-19
1.51949e-18
-4.15698e-19
1.25556e-18
-1.94661e-19
9.95797e-19
-5.85841e-20
6.43921e-19
2.66051e-19
-6.45552e-20
-9.49135e-19
-1.89064e-19
-2.53147e-18
-3.88318e-19
-3.90002e-18
-6.45467e-19
-5.03069e-18
-9.44711e-19
-5.93493e-18
-1.26783e-18
-6.62494e-18
-1.6028e-18
-7.11437e-18
-1.94213e-18
-7.41536e-18
-2.28042e-18
-7.54323e-18
-2.61556e-18
-7.5123e-18
-2.9458e-18
-7.33605e-18
-3.26944e-18
-7.03055e-18
-3.58573e-18
-6.60957e-18
-3.89439e-18
-6.08875e-18
-4.19465e-18
-5.48304e-18
-4.48628e-18
-4.80752e-18
-4.76837e-18
-4.07752e-18
-5.04037e-18
-3.30728e-18
-5.30066e-18
-2.51183e-18
-5.5485e-18
-1.70498e-18
-5.7825e-18
-9.01089e-19
-6.00207e-18
-1.12226e-19
-6.20493e-18
6.49432e-19
-6.3895e-18
1.37414e-18
-6.55313e-18
2.05303e-18
-6.69456e-18
2.67893e-18
-6.8123e-18
3.24276e-18
-6.90526e-18
3.73673e-18
-6.97192e-18
4.15595e-18
-7.01186e-18
4.49886e-18
-7.02339e-18
4.7649e-18
-7.00482e-18
4.95485e-18
-6.95489e-18
5.07074e-18
-6.8731e-18
5.11665e-18
-6.75774e-18
5.09731e-18
-6.60849e-18
5.01886e-18
-6.42568e-18
4.88654e-18
-6.20908e-18
4.70743e-18
-5.95907e-18
4.48955e-18
-5.67651e-18
4.24058e-18
-5.36257e-18
3.96828e-18
-5.01897e-18
3.68043e-18
-4.64806e-18
3.38474e-18
-4.25295e-18
3.08775e-18
-3.83605e-18
2.79586e-18
-3.4006e-18
2.51429e-18
-2.94985e-18
2.24683e-18
-2.4907e-18
1.9948e-18
-2.03351e-18
1.76046e-18
-1.5843e-18
1.54606e-18
-1.16269e-18
1.33367e-18
-7.88394e-19
1.12634e-18
-4.62351e-19
9.51233e-19
-2.48216e-19
7.11511e-19
-8.74449e-20
4.7947e-19
1.78089e-19
-7.07314e-20
-8.71577e-19
-2.30017e-19
-2.34532e-18
-4.78622e-19
-3.6286e-18
-8.00085e-19
-4.69418e-18
-1.175e-18
-5.55304e-18
-1.58488e-18
-6.21336e-18
-2.01525e-18
-6.68462e-18
-2.456e-18
-6.9769e-18
-2.89981e-18
-7.10266e-18
-3.34193e-18
-7.07471e-18
-3.77779e-18
-6.90547e-18
-4.20502e-18
-6.6093e-18
-4.62058e-18
-6.20049e-18
-5.02232e-18
-5.69352e-18
-5.40884e-18
-5.10344e-18
-5.77878e-18
-4.44508e-18
-6.13044e-18
-3.73346e-18
-6.46226e-18
-2.98287e-18
-6.77282e-18
-2.20822e-18
-7.06081e-18
-1.42368e-18
-7.32544e-18
-6.42538e-19
-7.56486e-18
1.23058e-19
-7.77768e-18
8.61051e-19
-7.96103e-18
1.55997e-18
-8.11372e-18
2.21054e-18
-8.23647e-18
2.80525e-18
-8.33035e-18
3.33614e-18
-8.393e-18
3.79503e-18
-8.42211e-18
4.17932e-18
-8.41721e-18
4.48942e-18
-8.37755e-18
4.72338e-18
-8.30312e-18
4.88062e-18
-8.19377e-18
4.9633e-18
-8.04935e-18
4.97519e-18
-7.86934e-18
4.92127e-18
-7.65317e-18
4.8077e-18
-7.40172e-18
4.64103e-18
-7.11613e-18
4.42827e-18
-6.79708e-18
4.17739e-18
-6.44577e-18
3.89656e-18
-6.06374e-18
3.5943e-18
-5.65294e-18
3.27868e-18
-5.21635e-18
2.95745e-18
-4.75698e-18
2.63816e-18
-4.27795e-18
2.32728e-18
-3.78191e-18
2.03078e-18
-3.27344e-18
1.75289e-18
-2.75896e-18
1.49783e-18
-2.24698e-18
1.26731e-18
-1.75263e-18
1.05714e-18
-1.28302e-18
8.80177e-19
-8.60589e-19
7.24803e-19
-5.3848e-19
5.47656e-19
-2.35655e-19
4.35223e-19
-6.08762e-20
2.66113e-19
1.15039e-19
-7.65915e-20
-7.85817e-19
-2.62664e-19
-2.1365e-18
-5.49495e-19
-3.32052e-18
-9.19525e-19
-4.3085e-18
-1.35469e-18
-5.11155e-18
-1.83332e-18
-5.73301e-18
-2.33988e-18
-6.17879e-18
-2.8619e-18
-6.45718e-18
-3.39062e-18
-6.5778e-18
-3.91874e-18
-6.55149e-18
-4.44023e-18
-6.39008e-18
-4.95046e-18
-6.10587e-18
-5.44545e-18
-5.71288e-18
-5.92186e-18
-5.22485e-18
-6.37725e-18
-4.6564e-18
-6.8088e-18
-4.02199e-18
-7.21464e-18
-3.33604e-18
-7.59264e-18
-2.61298e-18
-7.94134e-18
-1.86731e-18
-8.25874e-18
-1.11268e-18
-8.54346e-18
-3.61566e-19
-8.79338e-18
3.73272e-19
-9.00723e-18
1.07978e-18
-9.18253e-18
1.74404e-18
-9.3199e-18
2.3557e-18
-9.42169e-18
2.9099e-18
-9.49084e-18
3.40122e-18
-9.52266e-18
3.81822e-18
-9.51485e-18
4.16154e-18
-9.46846e-18
4.43605e-18
-9.38364e-18
4.63519e-18
-9.2599e-18
4.75685e-18
-9.09825e-18
4.80337e-18
-8.89934e-18
4.7795e-18
-8.66347e-18
4.68993e-18
-8.39135e-18
4.54148e-18
-8.08398e-18
4.34016e-18
-7.74277e-18
4.09423e-18
-7.36923e-18
3.81117e-18
-6.96471e-18
3.5001e-18
-6.53101e-18
3.16959e-18
-6.07066e-18
2.82799e-18
-5.58654e-18
2.4834e-18
-5.08191e-18
2.14369e-18
-4.55977e-18
1.81592e-18
-4.02325e-18
1.50665e-18
-3.47619e-18
1.22163e-18
-2.92567e-18
9.63775e-19
-2.3834e-18
7.37979e-19
-1.85418e-18
5.54212e-19
-1.35743e-18
3.90972e-19
-9.2302e-19
2.50513e-19
-5.287e-19
2.03969e-19
-2.94859e-19
1.05567e-19
-1.10445e-19
7.7443e-20
4.21402e-21
-7.94434e-20
-7.00498e-19
-2.81444e-19
-1.90997e-18
-5.94997e-19
-2.98252e-18
-1.004e-18
-3.88612e-18
-1.48343e-18
-4.62603e-18
-2.01347e-18
-5.20174e-18
-2.57714e-18
-5.61624e-18
-3.16053e-18
-5.87659e-18
-3.7529e-18
-5.98943e-18
-4.34577e-18
-5.96391e-18
-4.9316e-18
-5.81031e-18
-5.50436e-18
-5.54003e-18
-6.05877e-18
-5.16572e-18
-6.59071e-18
-4.70089e-18
-7.0962e-18
-4.15892e-18
-7.57204e-18
-3.55412e-18
-8.01554e-18
-2.90035e-18
-8.42455e-18
-2.21183e-18
-8.79678e-18
-1.50212e-18
-9.13065e-18
-7.84803e-19
-9.42372e-18
-7.26364e-20
-9.67443e-18
6.22258e-19
-9.88272e-18
1.28977e-18
-1.00489e-17
1.91232e-18
-1.01696e-17
2.47759e-18
-1.02486e-17
2.98683e-18
-1.02907e-17
3.4389e-18
-1.02882e-17
3.80988e-18
-1.024e-17
4.10966e-18
-1.01535e-17
4.34774e-18
-1.00269e-17
4.509e-18
-9.86015e-18
4.59136e-18
-9.65378e-18
4.59979e-18
-9.40944e-18
4.53903e-18
-9.12817e-18
4.41415e-18
-8.81163e-18
4.23095e-18
-8.46108e-18
3.99647e-18
-8.07839e-18
3.71852e-18
-7.66512e-18
3.40576e-18
-7.22353e-18
3.06683e-18
-6.7554e-18
2.71049e-18
-6.26342e-18
2.34552e-18
-5.7507e-18
1.98032e-18
-5.22061e-18
1.623e-18
-4.67572e-18
1.28128e-18
-4.1189e-18
9.62277e-19
-3.55471e-18
6.71686e-19
-2.9898e-18
4.16298e-19
-2.43101e-18
2.00262e-19
-1.89308e-18
1.95263e-20
-1.38521e-18
-1.02856e-19
-9.27322e-19
-1.66572e-19
-5.88642e-19
-2.45438e-19
-2.45496e-19
-1.89894e-19
-5.80322e-20
-1.53483e-19
-5.60059e-20
-9.13401e-20
-6.00509e-19
-2.94317e-19
-1.67683e-18
-6.25223e-19
-2.63137e-18
-1.05421e-18
-3.44257e-18
-1.56268e-18
-4.11184e-18
-2.12724e-18
-4.6367e-18
-2.72896e-18
-5.01658e-18
-3.35329e-18
-5.25574e-18
-3.98861e-18
-5.35893e-18
-4.62491e-18
-5.33321e-18
-5.25398e-18
-5.18762e-18
-5.86849e-18
-4.93244e-18
-6.46247e-18
-4.57936e-18
-7.03037e-18
-4.14079e-18
-7.56752e-18
-3.62956e-18
-8.07017e-18
-3.05903e-18
-8.53518e-18
-2.44285e-18
-8.9596e-18
-1.79459e-18
-9.34121e-18
-1.12764e-18
-9.67797e-18
-4.5493e-19
-9.96853e-18
2.1135e-19
-1.02118e-17
8.59652e-19
-1.04083e-17
1.47993e-18
-1.05588e-17
2.05642e-18
-1.06586e-17
2.57138e-18
-1.07096e-17
3.03355e-18
-1.07179e-17
3.44547e-18
-1.06809e-17
3.77415e-18
-1.05988e-17
4.02993e-18
-1.04736e-17
4.22526e-18
-1.03071e-17
4.34502e-18
-1.01009e-17
4.38852e-18
-9.85687e-18
4.36004e-18
-9.57583e-18
4.26352e-18
-9.25985e-18
4.1043e-18
-8.91018e-18
3.88805e-18
-8.52924e-18
3.6229e-18
-8.11873e-18
3.31603e-18
-7.68101e-18
2.97656e-18
-7.21826e-18
2.61293e-18
-6.73282e-18
2.23449e-18
-6.22746e-18
1.84971e-18
-5.70538e-18
1.4678e-18
-5.16953e-18
1.09645e-18
-4.6223e-18
7.44463e-19
-4.06671e-18
4.18768e-19
-3.50569e-18
1.26804e-19
-2.94581e-18
-1.27059e-19
-2.39808e-18
-3.35078e-19
-1.86379e-18
-4.82805e-19
-1.36455e-18
-5.91768e-19
-9.32575e-19
-6.54732e-19
-5.22372e-19
-5.72286e-19
-3.06423e-19
-5.21295e-19
-1.15786e-19
-3.38623e-19
-1.71826e-19
-8.18171e-20
-5.08213e-19
-2.96662e-19
-1.43876e-18
-6.31695e-19
-2.27013e-18
-1.0736e-18
-2.9871e-18
-1.59668e-18
-3.58433e-18
-2.17751e-18
-4.05659e-18
-2.79809e-18
-4.39931e-18
-3.44374e-18
-4.61513e-18
-4.10161e-18
-4.70713e-18
-4.76085e-18
-4.68077e-18
-5.41248e-18
-4.54353e-18
-6.04854e-18
-4.30453e-18
-6.66224e-18
-3.97436e-18
-7.24723e-18
-3.56448e-18
-7.79818e-18
-3.08716e-18
-8.3107e-18
-2.55483e-18
-8.78121e-18
-1.98058e-18
-9.20652e-18
-1.37724e-18
-9.58446e-18
-7.57793e-19
-9.91298e-18
-1.34274e-19
-1.0191e-17
4.81095e-19
-1.04176e-17
1.07753e-18
-1.05917e-17
1.64442e-18
-1.07135e-17
2.16929e-18
-1.07861e-17
2.63595e-18
-1.08085e-17
3.05173e-18
-1.07783e-17
3.41414e-18
-1.07051e-17
3.70287e-18
-1.05912e-17
3.91884e-18
-1.04312e-17
4.06907e-18
-1.02298e-17
4.14755e-18
-9.98988e-18
4.15416e-18
-9.71433e-18
4.09048e-18
-9.40418e-18
3.96089e-18
-9.06253e-18
3.77022e-18
-8.69068e-18
3.52527e-18
-8.29164e-18
3.23272e-18
-7.8666e-18
2.9012e-18
-7.41919e-18
2.53892e-18
-6.9509e-18
2.15555e-18
-6.46534e-18
1.75929e-18
-5.96409e-18
1.35999e-18
-5.45151e-18
9.6558e-19
-4.92898e-18
5.85223e-19
-4.39985e-18
2.26557e-19
-3.86501e-18
-1.01926e-19
-3.32954e-18
-3.94183e-19
-2.79696e-18
-6.40393e-19
-2.27207e-18
-8.35327e-19
-1.76989e-18
-9.83707e-19
-1.29696e-18
-1.04986e-18
-8.6389e-19
-1.02679e-18
-5.62853e-19
-1.00972e-18
-2.19142e-19
-7.94266e-19
-4.21225e-20
-5.63851e-19
-2.16652e-19
-8.90148e-20
-4.12215e-19
-2.919e-19
-1.20055e-18
-6.27582e-19
-1.91533e-18
-1.06464e-18
-2.53705e-18
-1.58608e-18
-3.05801e-18
-2.16748e-18
-3.47594e-18
-2.78971e-18
-3.78059e-18
-3.43785e-18
-3.97185e-18
-4.09887e-18
-4.05169e-18
-4.7616e-18
-4.02438e-18
-5.41631e-18
-3.89562e-18
-6.05484e-18
-3.67353e-18
-6.66932e-18
-3.36774e-18
-7.25321e-18
-2.98863e-18
-7.80044e-18
-2.54769e-18
-8.30625e-18
-2.05638e-18
-8.76647e-18
-1.52739e-18
-9.17849e-18
-9.72542e-19
-9.53912e-18
-4.04135e-19
-9.84713e-18
1.6663e-19
-1.01007e-17
7.27929e-19
-1.03001e-17
1.26955e-18
-1.04432e-17
1.78035e-18
-1.05318e-17
2.2505e-18
-1.05705e-17
2.66916e-18
-1.05599e-17
3.03733e-18
-1.04941e-17
3.34768e-18
-1.03836e-17
3.59324e-18
-1.02315e-17
3.7698e-18
-1.00383e-17
3.87948e-18
-9.80499e-18
3.91935e-18
-9.53686e-18
3.89138e-18
-9.23547e-18
3.79563e-18
-8.90511e-18
3.63726e-18
-8.54624e-18
3.41945e-18
-8.16324e-18
3.15026e-18
-7.75654e-18
2.83513e-18
-7.3308e-18
2.48428e-18
-6.88689e-18
2.1047e-18
-6.42925e-18
1.70702e-18
-5.95861e-18
1.2988e-18
-5.4797e-18
8.90346e-19
-4.99334e-18
4.89222e-19
-4.50382e-18
1.0491e-19
-4.01109e-18
-2.5539e-19
-3.51868e-18
-5.82648e-19
-3.02652e-18
-8.69781e-19
-2.54057e-18
-1.11006e-18
-2.06861e-18
-1.29617e-18
-1.6083e-18
-1.40685e-18
-1.17791e-18
-1.46726e-18
-8.0872e-19
-1.46569e-18
-4.39362e-19
-1.26709e-18
-2.78408e-19
-1.08769e-18
-1.21229e-19
-7.18633e-19
-3.37964e-19
-7.74196e-20
-3.22191e-19
-2.81094e-19
-9.783e-19
-6.03197e-19
-1.5693e-18
-1.02918e-18
-2.09731e-18
-1.53757e-18
-2.5444e-18
-2.10405e-18
-2.90819e-18
-2.71079e-18
-3.17395e-18
-3.34356e-18
-3.33981e-18
-3.98989e-18
-3.40683e-18
-4.63787e-18
-3.37812e-18
-5.27786e-18
-3.25798e-18
-5.90072e-18
-3.05381e-18
-6.49879e-18
-2.77319e-18
-7.0642e-18
-2.42652e-18
-7.59141e-18
-2.02301e-18
-8.07467e-18
-1.57563e-18
-8.51066e-18
-1.09385e-18
-8.8948e-18
-5.90724e-19
-9.22573e-18
-7.51785e-20
-9.50056e-18
4.39355e-19
-9.71947e-18
9.45021e-19
-9.88113e-18
1.42881e-18
-9.9867e-18
1.88433e-18
-1.00371e-17
2.29877e-18
-1.00364e-17
2.66807e-18
-9.98394e-18
2.98452e-18
-9.88153e-18
3.24706e-18
-9.73286e-18
3.44614e-18
-9.54323e-18
3.58371e-18
-9.31506e-18
3.65388e-18
-9.05284e-18
3.66088e-18
-8.75997e-18
3.60015e-18
-8.43979e-18
3.47882e-18
-8.09507e-18
3.29448e-18
-7.72871e-18
3.05688e-18
-7.34304e-18
2.76689e-18
-6.94099e-18
2.43718e-18
-6.52512e-18
2.07106e-18
-6.09867e-18
1.6822e-18
-5.66414e-18
1.27491e-18
-5.22489e-18
8.62838e-19
-4.78302e-18
4.50546e-19
-4.34128e-18
5.07777e-20
-3.90132e-18
-3.3233e-19
-3.46433e-18
-6.86979e-19
-3.03109e-18
-1.00873e-18
-2.60399e-18
-1.28729e-18
-2.18529e-18
-1.51542e-18
-1.77418e-18
-1.68303e-18
-1.38642e-18
-1.80084e-18
-1.01837e-18
-1.8196e-18
-6.73319e-19
-1.72506e-18
-4.58921e-19
-1.63821e-18
-1.56904e-19
-1.30437e-18
-2.2004e-20
-9.03648e-19
-3.62722e-19
-7.60323e-20
-2.41411e-19
-2.62563e-19
-7.66828e-19
-5.70787e-19
-1.24253e-18
-9.7274e-19
-1.68712e-18
-1.45313e-18
-2.06312e-18
-1.9911e-18
-2.37235e-18
-2.5682e-18
-2.60052e-18
-3.17051e-18
-2.74184e-18
-3.78596e-18
-2.79641e-18
-4.40303e-18
-2.76638e-18
-5.01179e-18
-2.65583e-18
-5.60271e-18
-2.46924e-18
-6.16846e-18
-2.21507e-18
-6.7003e-18
-1.90123e-18
-7.19305e-18
-1.53828e-18
-7.63943e-18
-1.13533e-18
-8.03754e-18
-7.03679e-19
-8.3814e-18
-2.52435e-19
-8.67113e-18
2.06525e-19
-8.90171e-18
6.65483e-19
-9.0768e-18
1.11224e-18
-9.19168e-18
1.54044e-18
-9.25295e-18
1.93793e-18
-9.25611e-18
2.2999e-18
-9.21087e-18
2.61631e-18
-9.11158e-18
2.88544e-18
-8.96867e-18
3.09958e-18
-8.77784e-18
3.25843e-18
-8.55295e-18
3.35592e-18
-8.28944e-18
3.39496e-18
-8.00227e-18
3.37122e-18
-7.68561e-18
3.28912e-18
-7.35378e-18
3.14558e-18
-6.99896e-18
2.94628e-18
-6.6346e-18
2.69228e-18
-6.25272e-18
2.39248e-18
-5.86686e-18
2.05212e-18
-5.46967e-18
1.68174e-18
-5.0742e-18
1.28831e-18
-4.67372e-18
8.8236e-19
-4.28066e-18
4.71972e-19
-3.88838e-18
6.70561e-20
-3.50795e-18
-3.25626e-19
-3.13197e-18
-6.97408e-19
-2.76866e-18
-1.04164e-18
-2.41102e-18
-1.35034e-18
-2.06611e-18
-1.6155e-18
-1.7283e-18
-1.83149e-18
-1.41173e-18
-1.98951e-18
-1.09898e-18
-2.063e-18
-8.08141e-19
-2.0807e-18
-5.68885e-19
-2.04793e-18
-2.84078e-19
-1.7687e-18
-2.09988e-19
-1.50472e-18
-1.06953e-19
-9.90878e-19
-4.68735e-19
-6.41881e-20
-1.71617e-19
-2.3734e-19
-5.74127e-19
-5.21701e-19
-9.55459e-19
-8.9346e-19
-1.31911e-18
-1.33696e-18
-1.63442e-18
-1.8358e-18
-1.89537e-18
-2.37019e-18
-2.08832e-18
-2.92974e-18
-2.20708e-18
-3.49992e-18
-2.25033e-18
-4.07341e-18
-2.22027e-18
-4.63541e-18
-2.11888e-18
-5.18264e-18
-1.95226e-18
-5.69914e-18
-1.72527e-18
-6.18646e-18
-1.44658e-18
-6.62806e-18
-1.12332e-18
-7.03053e-18
-7.67514e-19
-7.37438e-18
-3.86053e-19
-7.67195e-18
1.00374e-20
-7.9034e-18
4.14534e-19
-8.08743e-18
8.15104e-19
-8.20187e-18
1.20652e-18
-8.27087e-18
1.57656e-18
-8.27094e-18
1.92146e-18
-8.23082e-18
2.23001e-18
-8.12552e-18
2.50017e-18
-7.98683e-18
2.72288e-18
-7.78781e-18
2.89863e-18
-7.56523e-18
3.01943e-18
-7.29119e-18
3.08885e-18
-7.00588e-18
3.10141e-18
-6.68068e-18
3.06168e-18
-6.3563e-18
2.9644e-18
-6.00181e-18
2.81395e-18
-5.65614e-18
2.60638e-18
-5.28605e-18
2.34955e-18
-4.92932e-18
2.04554e-18
-4.55402e-18
1.70715e-18
-4.19802e-18
1.33998e-18
-3.83076e-18
9.54743e-19
-3.4877e-18
5.57882e-19
-3.13985e-18
1.61287e-19
-2.82031e-18
-2.28654e-19
-2.50218e-18
-6.02524e-19
-2.21345e-18
-9.55136e-19
-1.92902e-18
-1.2799e-18
-1.67067e-18
-1.57152e-18
-1.41655e-18
-1.82233e-18
-1.186e-18
-2.02119e-18
-9.5436e-19
-2.15779e-18
-7.50059e-19
-2.24549e-18
-5.62852e-19
-2.24478e-18
-3.63883e-19
-2.1014e-18
-2.81113e-19
-1.9818e-18
-6.54719e-20
-1.59454e-18
2.43005e-20
-1.09883e-18
-4.44836e-19
-4.96926e-20
-1.14674e-19
-2.14919e-19
-4.16451e-19
-4.62008e-19
-7.16086e-19
-7.97149e-19
-1.00956e-18
-1.19507e-18
-1.26876e-18
-1.64343e-18
-1.47707e-18
-2.12762e-18
-1.63613e-18