/*--------------------------------*- C++ -*----------------------------------*\
| =========                 |                                                 |
| \\      /  F ield         | OpenFOAM: The Open Source CFD Toolbox           |
|  \\    /   O peration     | Version:  5.0                                   |
|   \\  /    A nd           | Web:      www.OpenFOAM.org                      |
|    \\/     M anipulation  |                                                 |
\*---------------------------------------------------------------------------*/
FoamFile
{
    version     2.0;
    format      ascii;
    class       volScalarField;
    location    "438";
    object      p;
}
// * * * * * * * * * * * * * * * * * * * * * * * * * * * * * * * * * * * * * //

dimensions      [0 2 -2 0 0 0 0];

internalField   nonuniform List<scalar> 
1568
(
4.47134e-18
2.27593e-17
3.58755e-17
4.36963e-17
5.05207e-17
5.6573e-17
6.16011e-17
6.61516e-17
7.03527e-17
7.42498e-17
7.79472e-17
8.15414e-17
8.50825e-17
8.85914e-17
9.21135e-17
9.56802e-17
9.93e-17
1.02988e-16
1.06751e-16
1.10594e-16
1.14512e-16
1.18513e-16
1.22428e-16
1.25349e-16
1.27591e-16
1.30522e-16
1.35272e-16
1.42134e-16
1.49917e-16
1.56801e-16
1.61576e-16
1.64534e-16
1.66772e-16
1.69673e-16
1.73577e-16
1.7758e-16
1.81487e-16
1.85332e-16
1.89088e-16
1.92772e-16
1.96386e-16
1.99948e-16
2.03461e-16
2.06969e-16
2.10491e-16
2.14075e-16
2.17773e-16
2.21662e-16
2.2581e-16
2.30346e-16
2.35441e-16
2.41298e-16
2.48045e-16
2.56064e-16
2.68711e-16
2.83208e-16
1.55921e-17
2.47132e-17
4.20578e-17
4.735e-17
5.23704e-17
6.03363e-17
6.5011e-17
6.93057e-17
7.38229e-17
7.78114e-17
8.14097e-17
8.4942e-17
8.8489e-17
9.19088e-17
9.5334e-17
9.8782e-17
1.02248e-16
1.05763e-16
1.09339e-16
1.12985e-16
1.16697e-16
1.20498e-16
1.24468e-16
1.28954e-16
1.33395e-16
1.37481e-16
1.41657e-16
1.44966e-16
1.47152e-16
1.50514e-16
1.54673e-16
1.58716e-16
1.63064e-16
1.67597e-16
1.71571e-16
1.7542e-16
1.79064e-16
1.82763e-16
1.86302e-16
1.89813e-16
1.93293e-16
1.96788e-16
2.00168e-16
2.03602e-16
2.07058e-16
2.10635e-16
2.14348e-16
2.18276e-16
2.22422e-16
2.27118e-16
2.32393e-16
2.38264e-16
2.44909e-16
2.51928e-16
2.6659e-16
2.76076e-16
2.51988e-17
3.49376e-17
4.21208e-17
5.27942e-17
5.98442e-17
6.47803e-17
6.96032e-17
7.49273e-17
7.89585e-17
8.23866e-17
8.64931e-17
9.01075e-17
9.32181e-17
9.65502e-17
9.98769e-17
1.03006e-16
1.06253e-16
1.09522e-16
1.12829e-16
1.16109e-16
1.19481e-16
1.22872e-16
1.26336e-16
1.29781e-16
1.32964e-16
1.35991e-16
1.3973e-16
1.43939e-16
1.48187e-16
1.52307e-16
1.56042e-16
1.59176e-16
1.62498e-16
1.65921e-16
1.69301e-16
1.72631e-16
1.76099e-16
1.79299e-16
1.8262e-16
1.85907e-16
1.89053e-16
1.92118e-16
1.95472e-16
1.98719e-16
2.02106e-16
2.05588e-16
2.09231e-16
2.13109e-16
2.17404e-16
2.22036e-16
2.26954e-16
2.32487e-16
2.40212e-16
2.46258e-16
2.58712e-16
2.67165e-16
3.37259e-17
4.13194e-17
5.39124e-17
5.8168e-17
6.46325e-17
7.00853e-17
7.47891e-17
7.95117e-17
8.36325e-17
8.73837e-17
9.0829e-17
9.40562e-17
9.73519e-17
1.00585e-16
1.03543e-16
1.06634e-16
1.09691e-16
1.12682e-16
1.15673e-16
1.18814e-16
1.21898e-16
1.25007e-16
1.2809e-16
1.31233e-16
1.34239e-16
1.37386e-16
1.4071e-16
1.44274e-16
1.47856e-16
1.51456e-16
1.54813e-16
1.57824e-16
1.6075e-16
1.63844e-16
1.67035e-16
1.70129e-16
1.73228e-16
1.76339e-16
1.79334e-16
1.82366e-16
1.85467e-16
1.88605e-16
1.91629e-16
1.94731e-16
1.9795e-16
2.01283e-16
2.04746e-16
2.08611e-16
2.12633e-16
2.16809e-16
2.22252e-16
2.28079e-16
2.3332e-16
2.38957e-16
2.51496e-16
2.58419e-16
4.29691e-17
4.83617e-17
5.96611e-17
6.42319e-17
7.01612e-17
7.54607e-17
8.01289e-17
8.42722e-17
8.79412e-17
9.16472e-17
9.49924e-17
9.81564e-17
1.01214e-16
1.04088e-16
1.06937e-16
1.09806e-16
1.12595e-16
1.15418e-16
1.18243e-16
1.21061e-16
1.23891e-16
1.26767e-16
1.29668e-16
1.32612e-16
1.35518e-16
1.38501e-16
1.41516e-16
1.44537e-16
1.47542e-16
1.50579e-16
1.53614e-16
1.56637e-16
1.59579e-16
1.62508e-16
1.65427e-16
1.68292e-16
1.71074e-16
1.7392e-16
1.7673e-16
1.795e-16
1.82259e-16
1.85058e-16
1.87891e-16
1.9085e-16
1.93856e-16
1.97035e-16
2.00421e-16
2.0389e-16
2.0767e-16
2.12191e-16
2.16596e-16
2.20952e-16
2.27743e-16
2.33736e-16
2.42444e-16
2.49013e-16
5.29344e-17
5.87448e-17
6.69838e-17
7.23296e-17
7.70923e-17
8.16197e-17
8.61605e-17
9.00038e-17
9.33539e-17
9.67532e-17
9.99033e-17
1.02814e-16
1.05589e-16
1.0832e-16
1.11009e-16
1.13558e-16
1.16089e-16
1.18644e-16
1.21203e-16
1.2371e-16
1.26267e-16
1.28858e-16
1.31439e-16
1.34023e-16
1.36643e-16
1.39249e-16
1.41944e-16
1.44697e-16
1.47447e-16
1.50173e-16
1.5284e-16
1.55461e-16
1.58098e-16
1.60687e-16
1.63223e-16
1.65796e-16
1.68365e-16
1.70894e-16
1.73442e-16
1.76002e-16
1.78549e-16
1.81129e-16
1.83793e-16
1.86474e-16
1.89281e-16
1.92205e-16
1.95219e-16
1.98637e-16
2.02294e-16
2.05718e-16
2.10192e-16
2.15585e-16
2.1991e-16
2.2386e-16
2.33891e-16
2.39244e-16
6.30848e-17
6.80427e-17
7.53867e-17
7.9727e-17
8.42443e-17
8.85826e-17
9.22891e-17
9.56927e-17
9.90617e-17
1.021e-16
1.04854e-16
1.07487e-16
1.10045e-16
1.12508e-16
1.14866e-16
1.172e-16
1.19528e-16
1.21797e-16
1.24052e-16
1.26343e-16
1.28628e-16
1.30886e-16
1.33167e-16
1.35469e-16
1.37787e-16
1.40117e-16
1.42484e-16
1.44864e-16
1.47262e-16
1.49669e-16
1.52022e-16
1.54321e-16
1.56624e-16
1.58923e-16
1.61203e-16
1.6348e-16
1.65775e-16
1.68028e-16
1.70279e-16
1.72557e-16
1.74869e-16
1.77203e-16
1.79577e-16
1.82008e-16
1.84551e-16
1.87229e-16
1.90035e-16
1.93002e-16
1.96198e-16
1.99877e-16
2.0373e-16
2.07189e-16
2.12382e-16
2.17369e-16
2.24082e-16
2.28947e-16
7.35673e-17
7.75605e-17
8.41064e-17
8.77856e-17
9.1801e-17
9.54909e-17
9.86925e-17
1.01789e-16
1.04769e-16
1.0734e-16
1.09834e-16
1.12255e-16
1.14527e-16
1.16675e-16
1.1877e-16
1.20841e-16
1.2287e-16
1.24866e-16
1.26858e-16
1.2885e-16
1.3083e-16
1.32825e-16
1.34833e-16
1.36849e-16
1.38862e-16
1.40905e-16
1.42957e-16
1.45021e-16
1.47092e-16
1.49149e-16
1.51221e-16
1.53282e-16
1.55285e-16
1.57294e-16
1.59321e-16
1.61306e-16
1.63269e-16
1.6526e-16
1.67248e-16
1.69241e-16
1.71251e-16
1.73289e-16
1.75382e-16
1.77556e-16
1.79808e-16
1.82165e-16
1.84629e-16
1.87346e-16
1.90248e-16
1.93119e-16
1.96547e-16
2.00572e-16
2.04209e-16
2.07133e-16
2.14459e-16
2.18456e-16
8.43398e-17
8.77544e-17
9.33715e-17
9.64178e-17
9.96774e-17
1.027e-16
1.05667e-16
1.08364e-16
1.10762e-16
1.13055e-16
1.15247e-16
1.17258e-16
1.19205e-16
1.21091e-16
1.22908e-16
1.2467e-16
1.26391e-16
1.28112e-16
1.2982e-16
1.31495e-16
1.3318e-16
1.34897e-16
1.36586e-16
1.38283e-16
1.39999e-16
1.41722e-16
1.4345e-16
1.45195e-16
1.46941e-16
1.48671e-16
1.50402e-16
1.52122e-16
1.53836e-16
1.55534e-16
1.57222e-16
1.58909e-16
1.60594e-16
1.62283e-16
1.63983e-16
1.65693e-16
1.67419e-16
1.69187e-16
1.71006e-16
1.72865e-16
1.74787e-16
1.76843e-16
1.79011e-16
1.81274e-16
1.83691e-16
1.86421e-16
1.89376e-16
1.92021e-16
1.95724e-16
1.99216e-16
2.04163e-16
2.07624e-16
9.53278e-17
9.81123e-17
1.02532e-16
1.05025e-16
1.07802e-16
1.10336e-16
1.12804e-16
1.14952e-16
1.16901e-16
1.18875e-16
1.20714e-16
1.22377e-16
1.23976e-16
1.25539e-16
1.27031e-16
1.28504e-16
1.29937e-16
1.31346e-16
1.3274e-16
1.34155e-16
1.35538e-16
1.36913e-16
1.38307e-16
1.39714e-16
1.41112e-16
1.42518e-16
1.43934e-16
1.45354e-16
1.4677e-16
1.482e-16
1.49608e-16
1.51007e-16
1.52408e-16
1.53806e-16
1.5519e-16
1.56571e-16
1.57967e-16
1.59357e-16
1.60747e-16
1.62152e-16
1.63582e-16
1.65043e-16
1.66533e-16
1.68078e-16
1.69686e-16
1.71377e-16
1.73133e-16
1.75083e-16
1.77171e-16
1.79193e-16
1.81623e-16
1.84285e-16
1.87036e-16
1.89094e-16
1.93933e-16
1.96656e-16
1.06459e-16
1.08625e-16
1.11988e-16
1.14024e-16
1.16187e-16
1.18124e-16
1.19987e-16
1.21666e-16
1.23307e-16
1.24827e-16
1.2619e-16
1.27536e-16
1.28835e-16
1.30047e-16
1.31215e-16
1.32369e-16
1.33501e-16
1.34603e-16
1.35693e-16
1.36776e-16
1.37872e-16
1.38946e-16
1.40035e-16
1.41112e-16
1.42197e-16
1.43291e-16
1.44409e-16
1.45518e-16
1.46627e-16
1.4773e-16
1.48818e-16
1.49914e-16
1.51007e-16
1.5209e-16
1.53174e-16
1.54254e-16
1.55331e-16
1.56411e-16
1.57499e-16
1.58602e-16
1.59721e-16
1.60854e-16
1.62016e-16
1.63241e-16
1.64519e-16
1.65828e-16
1.6724e-16
1.68743e-16
1.70292e-16
1.72001e-16
1.74039e-16
1.7574e-16
1.77873e-16
1.80091e-16
1.83344e-16
1.8548e-16
1.17733e-16
1.19281e-16
1.21714e-16
1.23129e-16
1.24672e-16
1.26037e-16
1.27403e-16
1.28628e-16
1.29787e-16
1.30812e-16
1.31856e-16
1.32769e-16
1.33672e-16
1.34635e-16
1.35496e-16
1.36301e-16
1.37102e-16
1.37898e-16
1.38693e-16
1.39454e-16
1.40234e-16
1.41009e-16
1.41787e-16
1.42566e-16
1.43363e-16
1.44137e-16
1.44898e-16
1.4565e-16
1.46426e-16
1.47217e-16
1.48015e-16
1.48797e-16
1.49565e-16
1.50331e-16
1.51099e-16
1.51882e-16
1.52643e-16
1.53412e-16
1.54195e-16
1.54982e-16
1.55779e-16
1.566e-16
1.57442e-16
1.5839e-16
1.59286e-16
1.60201e-16
1.61231e-16
1.62233e-16
1.63454e-16
1.64625e-16
1.65853e-16
1.67289e-16
1.69101e-16
1.70192e-16
1.72663e-16
1.74211e-16
1.29075e-16
1.30019e-16
1.31495e-16
1.32316e-16
1.33255e-16
1.34071e-16
1.34929e-16
1.35672e-16
1.36314e-16
1.36794e-16
1.37968e-16
1.3859e-16
1.38562e-16
1.39299e-16
1.39787e-16
1.4026e-16
1.40751e-16
1.41224e-16
1.4169e-16
1.42155e-16
1.42605e-16
1.43073e-16
1.43522e-16
1.43968e-16
1.44415e-16
1.44881e-16
1.45358e-16
1.45858e-16
1.46332e-16
1.4677e-16
1.47216e-16
1.47674e-16
1.48132e-16
1.48598e-16
1.49051e-16
1.49491e-16
1.49955e-16
1.50418e-16
1.50876e-16
1.5134e-16
1.51819e-16
1.52292e-16
1.52779e-16
1.53489e-16
1.53468e-16
1.54093e-16
1.55222e-16
1.55745e-16
1.5634e-16
1.56972e-16
1.58105e-16
1.58808e-16
1.59437e-16
1.6039e-16
1.61998e-16
1.62853e-16
1.40489e-16
1.40812e-16
1.41297e-16
1.41596e-16
1.41935e-16
1.42176e-16
1.42488e-16
1.42749e-16
1.43047e-16
1.4319e-16
1.43543e-16
1.43631e-16
1.43653e-16
1.44134e-16
1.44132e-16
1.44239e-16
1.44405e-16
1.44547e-16
1.44682e-16
1.44838e-16
1.44987e-16
1.45129e-16
1.45272e-16
1.45431e-16
1.45571e-16
1.4572e-16
1.4585e-16
1.45978e-16
1.4612e-16
1.46273e-16
1.46419e-16
1.46567e-16
1.46704e-16
1.46841e-16
1.46994e-16
1.47123e-16
1.47274e-16
1.47412e-16
1.47546e-16
1.47698e-16
1.47847e-16
1.4793e-16
1.47945e-16
1.48407e-16
1.48417e-16
1.48517e-16
1.4883e-16
1.48944e-16
1.49308e-16
1.49619e-16
1.49742e-16
1.49773e-16
1.5073e-16
1.5081e-16
1.51067e-16
1.51434e-16
1.51907e-16
1.51639e-16
1.51175e-16
1.50887e-16
1.50634e-16
1.50285e-16
1.50066e-16
1.49774e-16
1.49464e-16
1.49347e-16
1.48966e-16
1.48866e-16
1.48847e-16
1.4835e-16
1.48326e-16
1.48217e-16
1.48036e-16
1.47863e-16
1.47703e-16
1.47539e-16
1.47365e-16
1.47185e-16
1.47022e-16
1.4686e-16
1.46689e-16
1.46509e-16
1.46335e-16
1.4614e-16
1.45955e-16
1.45794e-16
1.45626e-16
1.45446e-16
1.45272e-16
1.45089e-16
1.44916e-16
1.44753e-16
1.44572e-16
1.44392e-16
1.44227e-16
1.4405e-16
1.4387e-16
1.43747e-16
1.4372e-16
1.43225e-16
1.43182e-16
1.43066e-16
1.4271e-16
1.42611e-16
1.42213e-16
1.41788e-16
1.41879e-16
1.41556e-16
1.409e-16
1.40402e-16
1.40429e-16
1.40024e-16
1.6333e-16
1.62479e-16
1.61006e-16
1.60141e-16
1.59321e-16
1.58386e-16
1.57654e-16
1.56878e-16
1.56188e-16
1.55739e-16
1.54561e-16
1.53928e-16
1.53949e-16
1.53196e-16
1.52699e-16
1.52205e-16
1.51693e-16
1.51211e-16
1.50725e-16
1.50228e-16
1.4974e-16
1.49276e-16
1.48773e-16
1.48264e-16
1.47765e-16
1.47275e-16
1.468e-16
1.4634e-16
1.45847e-16
1.45335e-16
1.44814e-16
1.44322e-16
1.43835e-16
1.43356e-16
1.42847e-16
1.42366e-16
1.41865e-16
1.41388e-16
1.40893e-16
1.40391e-16
1.39876e-16
1.39388e-16
1.38861e-16
1.38108e-16
1.38121e-16
1.37505e-16
1.36291e-16
1.35771e-16
1.35184e-16
1.3452e-16
1.33484e-16
1.32299e-16
1.3228e-16
1.31209e-16
1.29427e-16
1.28589e-16
1.74684e-16
1.73191e-16
1.70782e-16
1.69381e-16
1.67931e-16
1.66402e-16
1.65165e-16
1.63907e-16
1.62736e-16
1.61741e-16
1.60657e-16
1.59731e-16
1.5883e-16
1.57851e-16
1.56995e-16
1.56147e-16
1.55333e-16
1.54513e-16
1.53715e-16
1.52908e-16
1.52121e-16
1.5131e-16
1.50523e-16
1.4973e-16
1.48946e-16
1.48122e-16
1.47293e-16
1.4644e-16
1.45631e-16
1.44816e-16
1.44028e-16
1.43215e-16
1.42405e-16
1.41588e-16
1.40799e-16
1.39989e-16
1.39197e-16
1.38382e-16
1.37576e-16
1.36756e-16
1.35932e-16
1.35081e-16
1.34221e-16
1.33238e-16
1.32321e-16
1.31373e-16
1.303e-16
1.29359e-16
1.28064e-16
1.26657e-16
1.25796e-16
1.24348e-16
1.22253e-16
1.20721e-16
1.18899e-16
1.1725e-16
1.85987e-16
1.83916e-16
1.80469e-16
1.78469e-16
1.76456e-16
1.74345e-16
1.72571e-16
1.70838e-16
1.69207e-16
1.67725e-16
1.66293e-16
1.6497e-16
1.63675e-16
1.6243e-16
1.61241e-16
1.60088e-16
1.58942e-16
1.57812e-16
1.56695e-16
1.55591e-16
1.54485e-16
1.53363e-16
1.52254e-16
1.51127e-16
1.50003e-16
1.48875e-16
1.4777e-16
1.46634e-16
1.45511e-16
1.44361e-16
1.43238e-16
1.42094e-16
1.40983e-16
1.39853e-16
1.38757e-16
1.37622e-16
1.36523e-16
1.35392e-16
1.34287e-16
1.33142e-16
1.32003e-16
1.30813e-16
1.29645e-16
1.28371e-16
1.27083e-16
1.25777e-16
1.24307e-16
1.22715e-16
1.21289e-16
1.19632e-16
1.17425e-16
1.15136e-16
1.14091e-16
1.11861e-16
1.07957e-16
1.05938e-16
1.97147e-16
1.94399e-16
1.90037e-16
1.87425e-16
1.84827e-16
1.82161e-16
1.79861e-16
1.7765e-16
1.75586e-16
1.73712e-16
1.71867e-16
1.70173e-16
1.68544e-16
1.67001e-16
1.65457e-16
1.64011e-16
1.62518e-16
1.6113e-16
1.59659e-16
1.58292e-16
1.56815e-16
1.55464e-16
1.53983e-16
1.52618e-16
1.51116e-16
1.49743e-16
1.48213e-16
1.46833e-16
1.45294e-16
1.43918e-16
1.42378e-16
1.41014e-16
1.39502e-16
1.38153e-16
1.3664e-16
1.35305e-16
1.33807e-16
1.32459e-16
1.30953e-16
1.29587e-16
1.28055e-16
1.26638e-16
1.25051e-16
1.23532e-16
1.2186e-16
1.20153e-16
1.18304e-16
1.16588e-16
1.14266e-16
1.11819e-16
1.10219e-16
1.07583e-16
1.04017e-16
1.01334e-16
9.77308e-17
9.48089e-17
2.08176e-16
2.04811e-16
1.99353e-16
1.96149e-16
1.9296e-16
1.89692e-16
1.86944e-16
1.84262e-16
1.8178e-16
1.79484e-16
1.77323e-16
1.75249e-16
1.73327e-16
1.71412e-16
1.69604e-16
1.67782e-16
1.66066e-16
1.64298e-16
1.62617e-16
1.60852e-16
1.59181e-16
1.57423e-16
1.55731e-16
1.53962e-16
1.52261e-16
1.50469e-16
1.48737e-16
1.46929e-16
1.45184e-16
1.43374e-16
1.41641e-16
1.39858e-16
1.38135e-16
1.36365e-16
1.34661e-16
1.32921e-16
1.31216e-16
1.29483e-16
1.27777e-16
1.26027e-16
1.24278e-16
1.22491e-16
1.20668e-16
1.18755e-16
1.16784e-16
1.14791e-16
1.12592e-16
1.10106e-16
1.07778e-16
1.05577e-16
1.02004e-16
9.82748e-17
9.65883e-17
9.33696e-17
8.69875e-17
8.37542e-17
2.18988e-16
2.14938e-16
2.08419e-16
2.04692e-16
2.0096e-16
1.97029e-16
1.93801e-16
1.90701e-16
1.87802e-16
1.85128e-16
1.82653e-16
1.80223e-16
1.78001e-16
1.75744e-16
1.73719e-16
1.71559e-16
1.69621e-16
1.6746e-16
1.65594e-16
1.63434e-16
1.61591e-16
1.59377e-16
1.5755e-16
1.55302e-16
1.53471e-16
1.51171e-16
1.49335e-16
1.46974e-16
1.45142e-16
1.42772e-16
1.40974e-16
1.38627e-16
1.36867e-16
1.3455e-16
1.32818e-16
1.30474e-16
1.28749e-16
1.26454e-16
1.24707e-16
1.22394e-16
1.20609e-16
1.18253e-16
1.16359e-16
1.13958e-16
1.11928e-16
1.0931e-16
1.06887e-16
1.04265e-16
1.0152e-16
9.76036e-17
9.50938e-17
9.20596e-17
8.67525e-17
8.24506e-17
7.73688e-17
7.30162e-17
2.2955e-16
2.24733e-16
2.1733e-16
2.12675e-16
2.08506e-16
2.04182e-16
2.0035e-16
1.96905e-16
1.93618e-16
1.90669e-16
1.87755e-16
1.85165e-16
1.82545e-16
1.80179e-16
1.77646e-16
1.75419e-16
1.72965e-16
1.70833e-16
1.68342e-16
1.66248e-16
1.63721e-16
1.61648e-16
1.59086e-16
1.56986e-16
1.54383e-16
1.52268e-16
1.49592e-16
1.47431e-16
1.44704e-16
1.42555e-16
1.39847e-16
1.37749e-16
1.351e-16
1.33026e-16
1.30408e-16
1.28401e-16
1.2584e-16
1.23759e-16
1.21218e-16
1.19161e-16
1.16621e-16
1.14481e-16
1.11886e-16
1.09583e-16
1.06814e-16
1.04279e-16
1.0143e-16
9.84159e-17
9.49102e-17
9.20465e-17
8.81081e-17
8.23438e-17
7.97827e-17
7.57306e-17
6.70854e-17
6.24065e-17
2.39802e-16
2.34224e-16
2.25597e-16
2.20437e-16
2.15587e-16
2.10745e-16
2.06523e-16
2.02682e-16
1.99058e-16
1.95788e-16
1.92631e-16
1.89751e-16
1.86835e-16
1.84213e-16
1.81443e-16
1.78987e-16
1.7622e-16
1.73854e-16
1.7107e-16
1.68747e-16
1.65892e-16
1.63598e-16
1.60645e-16
1.58384e-16
1.55364e-16
1.53109e-16
1.49968e-16
1.47662e-16
1.44429e-16
1.42149e-16
1.38915e-16
1.36754e-16
1.33603e-16
1.31495e-16
1.28353e-16
1.26303e-16
1.2314e-16
1.21137e-16
1.18089e-16
1.16023e-16
1.12912e-16
1.10828e-16
1.07709e-16
1.05405e-16
1.02198e-16
9.96856e-17
9.61151e-17
9.31257e-17
8.94098e-17
8.55071e-17
8.08952e-17
7.72914e-17
7.1651e-17
6.54151e-17
5.79351e-17
5.22379e-17
2.49694e-16
2.43467e-16
2.3342e-16
2.28078e-16
2.22376e-16
2.17006e-16
2.12598e-16
2.08261e-16
2.04447e-16
2.00827e-16
1.97592e-16
1.94257e-16
1.91403e-16
1.88259e-16
1.85625e-16
1.82504e-16
1.80004e-16
1.76809e-16
1.74404e-16
1.71083e-16
1.68731e-16
1.65271e-16
1.62951e-16
1.59376e-16
1.5707e-16
1.53389e-16
1.51035e-16
1.47212e-16
1.44914e-16
1.41046e-16
1.38842e-16
1.35086e-16
1.32975e-16
1.2922e-16
1.27103e-16
1.23316e-16
1.21271e-16
1.1767e-16
1.15468e-16
1.11893e-16
1.09746e-16
1.06186e-16
1.03914e-16
1.00395e-16
9.7886e-17
9.41987e-17
9.12403e-17
8.73549e-17
8.38206e-17
7.9286e-17
7.51441e-17
6.92805e-17
6.35746e-17
5.94139e-17
4.85246e-17
4.23259e-17
2.59038e-16
2.51813e-16
2.40073e-16
2.34419e-16
2.28333e-16
2.22602e-16
2.17832e-16
2.13334e-16
2.09259e-16
2.05514e-16
2.01972e-16
1.98596e-16
1.95405e-16
1.92208e-16
1.89138e-16
1.86019e-16
1.83041e-16
1.79886e-16
1.76906e-16
1.7369e-16
1.70679e-16
1.67397e-16
1.6438e-16
1.61012e-16
1.58109e-16
1.54755e-16
1.5161e-16
1.47783e-16
1.44377e-16
1.40522e-16
1.37344e-16
1.33796e-16
1.30879e-16
1.2741e-16
1.24572e-16
1.21189e-16
1.18397e-16
1.14886e-16
1.12209e-16
1.08954e-16
1.06275e-16
1.02888e-16
1.00106e-16
9.66587e-17
9.36846e-17
9.00543e-17
8.6842e-17
8.2833e-17
7.88828e-17
7.41292e-17
6.97396e-17
6.38712e-17
5.78485e-17
5.16484e-17
4.02659e-17
3.304e-17
2.67875e-16
2.59689e-16
2.46869e-16
2.40064e-16
2.33708e-16
2.27565e-16
2.22362e-16
2.17864e-16
2.13512e-16
2.09695e-16
2.05897e-16
2.02561e-16
1.9898e-16
1.95929e-16
1.92401e-16
1.89492e-16
1.85869e-16
1.83035e-16
1.79241e-16
1.76459e-16
1.72454e-16
1.69694e-16
1.6554e-16
1.6284e-16
1.58898e-16
1.56629e-16
1.51934e-16
1.48607e-16
1.43431e-16
1.40189e-16
1.35406e-16
1.33484e-16
1.2939e-16
1.2697e-16
1.22382e-16
1.20014e-16
1.15502e-16
1.1322e-16
1.08966e-16
1.0645e-16
1.02173e-16
9.98877e-17
9.57769e-17
9.32342e-17
8.91473e-17
8.63293e-17
8.19749e-17
7.85665e-17
7.3978e-17
6.97836e-17
6.41288e-17
5.81672e-17
5.21308e-17
4.50804e-17
3.24603e-17
2.42324e-17
2.76753e-16
2.67028e-16
2.52864e-16
2.4542e-16
2.38922e-16
2.32925e-16
2.27754e-16
2.23107e-16
2.18888e-16
2.14956e-16
2.11249e-16
2.0765e-16
2.04172e-16
2.00699e-16
1.97283e-16
1.93795e-16
1.90326e-16
1.86758e-16
1.83185e-16
1.79472e-16
1.75765e-16
1.71902e-16
1.67915e-16
1.63333e-16
1.58864e-16
1.54733e-16
1.50559e-16
1.47194e-16
1.44946e-16
1.4157e-16
1.37388e-16
1.33178e-16
1.28662e-16
1.24088e-16
1.20135e-16
1.16267e-16
1.12577e-16
1.08862e-16
1.05255e-16
1.01759e-16
9.83387e-17
9.48342e-17
9.13866e-17
8.79355e-17
8.44366e-17
8.08501e-17
7.7134e-17
7.32173e-17
6.89399e-17
6.43238e-17
5.9206e-17
5.3201e-17
4.65927e-17
3.92135e-17
2.51114e-17
1.53712e-17
2.83878e-16
2.69315e-16
2.56695e-16
2.48652e-16
2.41888e-16
2.3602e-16
2.30929e-16
2.26375e-16
2.2221e-16
2.18311e-16
2.14601e-16
2.10996e-16
2.07462e-16
2.0393e-16
2.00397e-16
1.96805e-16
1.93176e-16
1.89451e-16
1.85676e-16
1.81792e-16
1.77861e-16
1.7381e-16
1.69891e-16
1.66941e-16
1.64684e-16
1.61677e-16
1.56888e-16
1.49949e-16
1.42146e-16
1.35214e-16
1.30444e-16
1.27443e-16
1.25192e-16
1.22224e-16
1.18311e-16
1.14244e-16
1.10321e-16
1.06419e-16
1.02647e-16
9.89074e-17
9.52841e-17
9.16695e-17
8.81457e-17
8.45982e-17
8.10688e-17
7.74467e-17
7.37452e-17
6.98343e-17
6.56689e-17
6.1103e-17
5.60253e-17
5.01572e-17
4.33904e-17
3.53617e-17
2.27586e-17
8.22162e-18
)
;

boundaryField
{
    top
    {
        type            zeroGradient;
    }
    bottom
    {
        type            zeroGradient;
    }
    rotatingWall
    {
        type            zeroGradient;
    }
    wall
    {
        type            zeroGradient;
    }
    frontAndBack
    {
        type            empty;
    }
}


// ************************************************************************* //
