/*--------------------------------*- C++ -*----------------------------------*\
| =========                 |                                                 |
| \\      /  F ield         | OpenFOAM: The Open Source CFD Toolbox           |
|  \\    /   O peration     | Version:  5.0                                   |
|   \\  /    A nd           | Web:      www.OpenFOAM.org                      |
|    \\/     M anipulation  |                                                 |
\*---------------------------------------------------------------------------*/
FoamFile
{
    version     2.0;
    format      ascii;
    class       volVectorField;
    location    "430";
    object      U;
}
// * * * * * * * * * * * * * * * * * * * * * * * * * * * * * * * * * * * * * //

dimensions      [0 1 -1 0 0 0 0];

internalField   nonuniform List<vector> 
1568
(
(4.08948e-17 -1.41222e-16 0)
(4.53497e-16 -3.23371e-16 0)
(1.21261e-15 -4.80241e-16 0)
(2.26532e-15 -5.95573e-16 0)
(3.51104e-15 -6.88978e-16 0)
(4.93207e-15 -7.73222e-16 0)
(6.49715e-15 -8.36452e-16 0)
(8.16943e-15 -8.85491e-16 0)
(9.925e-15 -9.22302e-16 0)
(1.17393e-14 -9.45986e-16 0)
(1.35877e-14 -9.58081e-16 0)
(1.54485e-14 -9.59395e-16 0)
(1.7302e-14 -9.50647e-16 0)
(1.91293e-14 -9.32521e-16 0)
(2.09126e-14 -9.05751e-16 0)
(2.26358e-14 -8.70846e-16 0)
(2.4284e-14 -8.28535e-16 0)
(2.58434e-14 -7.79439e-16 0)
(2.73014e-14 -7.24173e-16 0)
(2.86466e-14 -6.63325e-16 0)
(2.98688e-14 -5.9752e-16 0)
(3.09595e-14 -5.27153e-16 0)
(3.19115e-14 -4.51375e-16 0)
(3.27106e-14 -3.58315e-16 0)
(3.33582e-14 -2.59235e-16 0)
(3.38558e-14 -1.70391e-16 0)
(3.41986e-14 -8.60458e-17 0)
(3.43689e-14 -2.30366e-17 0)
(3.437e-14 2.22368e-17 0)
(3.42021e-14 8.49271e-17 0)
(3.38617e-14 1.69194e-16 0)
(3.33662e-14 2.57821e-16 0)
(3.27206e-14 3.56965e-16 0)
(3.19235e-14 4.5033e-16 0)
(3.09735e-14 5.26203e-16 0)
(2.98847e-14 5.96557e-16 0)
(2.86642e-14 6.62511e-16 0)
(2.73206e-14 7.23358e-16 0)
(2.58641e-14 7.78769e-16 0)
(2.43059e-14 8.27949e-16 0)
(2.26588e-14 8.7034e-16 0)
(2.09365e-14 9.05239e-16 0)
(1.9154e-14 9.32167e-16 0)
(1.73274e-14 9.50384e-16 0)
(1.54743e-14 9.59225e-16 0)
(1.36135e-14 9.57906e-16 0)
(1.17654e-14 9.45764e-16 0)
(9.95184e-15 9.21987e-16 0)
(8.19604e-15 8.85782e-16 0)
(6.52325e-15 8.35735e-16 0)
(4.96139e-15 7.7108e-16 0)
(3.54078e-15 6.90688e-16 0)
(2.29328e-15 5.91954e-16 0)
(1.24902e-15 4.73555e-16 0)
(4.9374e-16 3.18222e-16 0)
(6.4697e-17 1.32086e-16 0)
(8.27798e-18 -3.81692e-16 0)
(4.48517e-16 -8.83488e-16 0)
(1.10875e-15 -1.33692e-15 0)
(2.0516e-15 -1.68518e-15 0)
(3.21054e-15 -1.9749e-15 0)
(4.52781e-15 -2.20752e-15 0)
(5.97669e-15 -2.39315e-15 0)
(7.53381e-15 -2.53667e-15 0)
(9.16864e-15 -2.64114e-15 0)
(1.08567e-14 -2.7096e-15 0)
(1.25773e-14 -2.74436e-15 0)
(1.43106e-14 -2.7483e-15 0)
(1.60362e-14 -2.72337e-15 0)
(1.7737e-14 -2.67134e-15 0)
(1.93971e-14 -2.59429e-15 0)
(2.1001e-14 -2.49434e-15 0)
(2.25347e-14 -2.373e-15 0)
(2.39857e-14 -2.23219e-15 0)
(2.53421e-14 -2.0736e-15 0)
(2.65934e-14 -1.89912e-15 0)
(2.77297e-14 -1.71028e-15 0)
(2.87426e-14 -1.50909e-15 0)
(2.96248e-14 -1.29762e-15 0)
(3.03706e-14 -1.07848e-15 0)
(3.09781e-14 -8.62207e-16 0)
(3.14417e-14 -6.39005e-16 0)
(3.17573e-14 -3.95837e-16 0)
(3.19156e-14 -1.3447e-16 0)
(3.19167e-14 1.31053e-16 0)
(3.17605e-14 3.92656e-16 0)
(3.14468e-14 6.36097e-16 0)
(3.0985e-14 8.59423e-16 0)
(3.03794e-14 1.07555e-15 0)
(2.96354e-14 1.29475e-15 0)
(2.8755e-14 1.50634e-15 0)
(2.77436e-14 1.70771e-15 0)
(2.66087e-14 1.89681e-15 0)
(2.53589e-14 2.07146e-15 0)
(2.40036e-14 2.23032e-15 0)
(2.25537e-14 2.37139e-15 0)
(2.10209e-14 2.49301e-15 0)
(1.94176e-14 2.59325e-15 0)
(1.77581e-14 2.6706e-15 0)
(1.60575e-14 2.72274e-15 0)
(1.43319e-14 2.74804e-15 0)
(1.25991e-14 2.74436e-15 0)
(1.08779e-14 2.70957e-15 0)
(9.18876e-15 2.64108e-15 0)
(7.55381e-15 2.53659e-15 0)
(5.99725e-15 2.39327e-15 0)
(4.54477e-15 2.20682e-15 0)
(3.22542e-15 1.97225e-15 0)
(2.06989e-15 1.68667e-15 0)
(1.11655e-15 1.335e-15 0)
(4.45099e-16 8.98584e-16 0)
(1.83532e-17 3.76083e-16 0)
(2.80371e-18 -5.82934e-16 0)
(3.62885e-16 -1.41044e-15 0)
(9.59495e-16 -2.1258e-15 0)
(1.83072e-15 -2.69957e-15 0)
(2.88084e-15 -3.16709e-15 0)
(4.09498e-15 -3.54888e-15 0)
(5.43677e-15 -3.84996e-15 0)
(6.87541e-15 -4.08227e-15 0)
(8.3882e-15 -4.25127e-15 0)
(9.95307e-15 -4.36153e-15 0)
(1.15477e-14 -4.41762e-15 0)
(1.31528e-14 -4.42358e-15 0)
(1.47518e-14 -4.38293e-15 0)
(1.63279e-14 -4.29883e-15 0)
(1.78654e-14 -4.17474e-15 0)
(1.93508e-14 -4.01342e-15 0)
(2.07712e-14 -3.81792e-15 0)
(2.21146e-14 -3.5911e-15 0)
(2.33702e-14 -3.33577e-15 0)
(2.45284e-14 -3.05463e-15 0)
(2.55804e-14 -2.75051e-15 0)
(2.65182e-14 -2.42603e-15 0)
(2.73354e-14 -2.08412e-15 0)
(2.80272e-14 -1.72862e-15 0)
(2.85878e-14 -1.36443e-15 0)
(2.90102e-14 -9.89741e-16 0)
(2.92927e-14 -6.01308e-16 0)
(2.94352e-14 -2.02921e-16 0)
(2.9436e-14 1.98062e-16 0)
(2.92952e-14 5.96526e-16 0)
(2.90145e-14 9.85227e-16 0)
(2.85938e-14 1.36004e-15 0)
(2.80348e-14 1.72445e-15 0)
(2.73444e-14 2.08005e-15 0)
(2.65287e-14 2.42226e-15 0)
(2.55923e-14 2.74687e-15 0)
(2.45416e-14 3.05142e-15 0)
(2.33845e-14 3.33279e-15 0)
(2.213e-14 3.5885e-15 0)
(2.07874e-14 3.81568e-15 0)
(1.93677e-14 4.01155e-15 0)
(1.7883e-14 4.17321e-15 0)
(1.63459e-14 4.29781e-15 0)
(1.47701e-14 4.38219e-15 0)
(1.31713e-14 4.42331e-15 0)
(1.15657e-14 4.41771e-15 0)
(9.97073e-15 4.36175e-15 0)
(8.40594e-15 4.25172e-15 0)
(6.89221e-15 4.08325e-15 0)
(5.45149e-15 3.8505e-15 0)
(4.10869e-15 3.54849e-15 0)
(2.89542e-15 3.16935e-15 0)
(1.8373e-15 2.70033e-15 0)
(9.66335e-16 2.12763e-15 0)
(3.69088e-16 1.4221e-15 0)
(6.51484e-18 5.7807e-16 0)
(1.31332e-18 -7.38511e-16 0)
(3.17593e-16 -1.86885e-15 0)
(8.43097e-16 -2.82119e-15 0)
(1.61865e-15 -3.61101e-15 0)
(2.57837e-15 -4.25087e-15 0)
(3.68278e-15 -4.76903e-15 0)
(4.9081e-15 -5.18153e-15 0)
(6.22757e-15 -5.4982e-15 0)
(7.6175e-15 -5.72722e-15 0)
(9.05489e-15 -5.87666e-15 0)
(1.05208e-14 -5.95317e-15 0)
(1.19981e-14 -5.96115e-15 0)
(1.34692e-14 -5.90598e-15 0)
(1.49187e-14 -5.79258e-15 0)
(1.63333e-14 -5.62494e-15 0)
(1.76998e-14 -5.40713e-15 0)
(1.90061e-14 -5.14345e-15 0)
(2.02415e-14 -4.83752e-15 0)
(2.13963e-14 -4.49329e-15 0)
(2.24612e-14 -4.11438e-15 0)
(2.34283e-14 -3.70468e-15 0)
(2.42906e-14 -3.26785e-15 0)
(2.5042e-14 -2.80783e-15 0)
(2.56772e-14 -2.32858e-15 0)
(2.61903e-14 -1.83469e-15 0)
(2.65757e-14 -1.32642e-15 0)
(2.6832e-14 -8.03717e-16 0)
(2.69604e-14 -2.70869e-16 0)
(2.69611e-14 2.64745e-16 0)
(2.68341e-14 7.97743e-16 0)
(2.6579e-14 1.32062e-15 0)
(2.61949e-14 1.82909e-15 0)
(2.56832e-14 2.32314e-15 0)
(2.50493e-14 2.80265e-15 0)
(2.4299e-14 3.26295e-15 0)
(2.34377e-14 3.70019e-15 0)
(2.24716e-14 4.11014e-15 0)
(2.14076e-14 4.48958e-15 0)
(2.02537e-14 4.83424e-15 0)
(1.9019e-14 5.14064e-15 0)
(1.77133e-14 5.40488e-15 0)
(1.63473e-14 5.62323e-15 0)
(1.4933e-14 5.79131e-15 0)
(1.34834e-14 5.9055e-15 0)
(1.20125e-14 5.961e-15 0)
(1.05353e-14 5.95344e-15 0)
(9.06875e-15 5.87785e-15 0)
(7.63064e-15 5.7286e-15 0)
(6.23986e-15 5.49942e-15 0)
(4.91933e-15 5.18386e-15 0)
(3.69317e-15 4.77221e-15 0)
(2.58499e-15 4.25337e-15 0)
(1.62529e-15 3.61301e-15 0)
(8.47747e-16 2.83127e-15 0)
(3.17418e-16 1.87374e-15 0)
(4.60958e-18 7.40361e-16 0)
(4.19396e-18 -8.79604e-16 0)
(2.72751e-16 -2.2601e-15 0)
(7.40501e-16 -3.45069e-15 0)
(1.43298e-15 -4.42567e-15 0)
(2.29056e-15 -5.22918e-15 0)
(3.2857e-15 -5.87975e-15 0)
(4.39488e-15 -6.39564e-15 0)
(5.59207e-15 -6.79102e-15 0)
(6.85507e-15 -7.07776e-15 0)
(8.16331e-15 -7.265e-15 0)
(9.49879e-15 -7.36008e-15 0)
(1.08447e-14 -7.3705e-15 0)
(1.21854e-14 -7.30276e-15 0)
(1.35072e-14 -7.16229e-15 0)
(1.47971e-14 -6.95453e-15 0)
(1.60428e-14 -6.68512e-15 0)
(1.72338e-14 -6.35865e-15 0)
(1.836e-14 -5.98009e-15 0)
(1.94124e-14 -5.55413e-15 0)
(2.03829e-14 -5.08562e-15 0)
(2.12641e-14 -4.57891e-15 0)
(2.20496e-14 -4.03887e-15 0)
(2.27337e-14 -3.47e-15 0)
(2.33112e-14 -2.87713e-15 0)
(2.37772e-14 -2.26435e-15 0)
(2.41278e-14 -1.63435e-15 0)
(2.43614e-14 -9.88929e-16 0)
(2.44784e-14 -3.33154e-16 0)
(2.44789e-14 3.26176e-16 0)
(2.43628e-14 9.82016e-16 0)
(2.41302e-14 1.62755e-15 0)
(2.37807e-14 2.25783e-15 0)
(2.33155e-14 2.87081e-15 0)
(2.27389e-14 3.46399e-15 0)
(2.20557e-14 4.03311e-15 0)
(2.1271e-14 4.5736e-15 0)
(2.03905e-14 5.08077e-15 0)
(1.94208e-14 5.54978e-15 0)
(1.83689e-14 5.9763e-15 0)
(1.72432e-14 6.35547e-15 0)
(1.60526e-14 6.68255e-15 0)
(1.48071e-14 6.95265e-15 0)
(1.35177e-14 7.16105e-15 0)
(1.21959e-14 7.30218e-15 0)
(1.0855e-14 7.37078e-15 0)
(9.50903e-15 7.36095e-15 0)
(8.17304e-15 7.26636e-15 0)
(6.86388e-15 7.07995e-15 0)
(5.60094e-15 6.79404e-15 0)
(4.40274e-15 6.399e-15 0)
(3.29073e-15 5.88356e-15 0)
(2.2949e-15 5.23469e-15 0)
(1.43779e-15 4.4335e-15 0)
(7.40782e-16 3.45557e-15 0)
(2.74271e-16 2.27095e-15 0)
(3.10838e-18 8.81001e-16 0)
(1.36708e-18 -1.00254e-15 0)
(2.38248e-16 -2.60983e-15 0)
(6.46686e-16 -4.00043e-15 0)
(1.25801e-15 -5.15476e-15 0)
(2.01718e-15 -6.10586e-15 0)
(2.90439e-15 -6.87705e-15 0)
(3.89582e-15 -7.48976e-15 0)
(4.96846e-15 -7.95963e-15 0)
(6.10234e-15 -8.30007e-15 0)
(7.27871e-15 -8.52243e-15 0)
(8.48073e-15 -8.63595e-15 0)
(9.69292e-15 -8.64934e-15 0)
(1.09011e-14 -8.5701e-15 0)
(1.20924e-14 -8.40525e-15 0)
(1.3255e-14 -8.16156e-15 0)
(1.43779e-14 -7.84501e-15 0)
(1.54516e-14 -7.46153e-15 0)
(1.64667e-14 -7.017e-15 0)
(1.74152e-14 -6.51692e-15 0)
(1.82898e-14 -5.9667e-15 0)
(1.90838e-14 -5.37188e-15 0)
(1.97912e-14 -4.73778e-15 0)
(2.0407e-14 -4.0697e-15 0)
(2.09265e-14 -3.37283e-15 0)
(2.13457e-14 -2.65204e-15 0)
(2.16612e-14 -1.91144e-15 0)
(2.1872e-14 -1.15515e-15 0)
(2.19775e-14 -3.88737e-16 0)
(2.19778e-14 3.81121e-16 0)
(2.18729e-14 1.14768e-15 0)
(2.16628e-14 1.90418e-15 0)
(2.13478e-14 2.64498e-15 0)
(2.09293e-14 3.36602e-15 0)
(2.04103e-14 4.06324e-15 0)
(1.97951e-14 4.73173e-15 0)
(1.90882e-14 5.36624e-15 0)
(1.82947e-14 5.9616e-15 0)
(1.74205e-14 6.51231e-15 0)
(1.64724e-14 7.01299e-15 0)
(1.54576e-14 7.45818e-15 0)
(1.43842e-14 7.84231e-15 0)
(1.32614e-14 8.15961e-15 0)
(1.20989e-14 8.40412e-15 0)
(1.09076e-14 8.56962e-15 0)
(9.69941e-15 8.64967e-15 0)
(8.48695e-15 8.63715e-15 0)
(7.28463e-15 8.52436e-15 0)
(6.10805e-15 8.30297e-15 0)
(4.97305e-15 7.96327e-15 0)
(3.89926e-15 7.49398e-15 0)
(2.9087e-15 6.88251e-15 0)
(2.02006e-15 6.11204e-15 0)
(1.25695e-15 5.16194e-15 0)
(6.48508e-16 4.00857e-15 0)
(2.4003e-16 2.61944e-15 0)
(2.331e-18 1.00358e-15 0)
(1.20491e-18 -1.10747e-15 0)
(2.06606e-16 -2.91469e-15 0)
(5.60452e-16 -4.48269e-15 0)
(1.09227e-15 -5.79482e-15 0)
(1.75736e-15 -6.87838e-15 0)
(2.53581e-15 -7.76005e-15 0)
(3.40875e-15 -8.46143e-15 0)
(4.35621e-15 -8.99971e-15 0)
(5.35929e-15 -9.39003e-15 0)
(6.40138e-15 -9.64521e-15 0)
(7.46748e-15 -9.77605e-15 0)
(8.54337e-15 -9.7926e-15 0)
(9.61619e-15 -9.70371e-15 0)
(1.06743e-14 -9.51752e-15 0)
(1.17072e-14 -9.24155e-15 0)
(1.27051e-14 -8.88291e-15 0)
(1.3659e-14 -8.4485e-15 0)
(1.4561e-14 -7.9448e-15 0)
(1.54037e-14 -7.3782e-15 0)
(1.61806e-14 -6.75488e-15 0)
(1.68858e-14 -6.08104e-15 0)
(1.7514e-14 -5.36266e-15 0)
(1.80606e-14 -4.60567e-15 0)
(1.85215e-14 -3.81585e-15 0)
(1.88934e-14 -2.99889e-15 0)
(1.91737e-14 -2.15991e-15 0)
(1.9361e-14 -1.30443e-15 0)
(1.94547e-14 -4.3859e-16 0)
(1.94549e-14 4.30787e-16 0)
(1.93614e-14 1.2967e-15 0)
(1.91745e-14 2.15235e-15 0)
(1.88945e-14 2.99156e-15 0)
(1.85229e-14 3.80884e-15 0)
(1.80622e-14 4.59896e-15 0)
(1.75159e-14 5.35637e-15 0)
(1.68879e-14 6.0752e-15 0)
(1.6183e-14 6.74955e-15 0)
(1.54063e-14 7.37346e-15 0)
(1.45637e-14 7.94072e-15 0)
(1.36619e-14 8.4451e-15 0)
(1.27081e-14 8.88027e-15 0)
(1.17103e-14 9.23966e-15 0)
(1.06775e-14 9.51642e-15 0)
(9.61926e-15 9.70353e-15 0)
(8.54634e-15 9.79329e-15 0)
(7.47042e-15 9.7776e-15 0)
(6.40405e-15 9.64764e-15 0)
(5.36128e-15 9.39346e-15 0)
(4.35822e-15 9.00397e-15 0)
(3.41073e-15 8.46682e-15 0)
(2.53573e-15 7.76641e-15 0)
(1.75723e-15 6.8851e-15 0)
(1.09402e-15 5.80243e-15 0)
(5.59718e-16 4.49158e-15 0)
(2.05015e-16 2.92159e-15 0)
(2.13491e-18 1.1099e-15 0)
(1.60465e-18 -1.19861e-15 0)
(1.75852e-16 -3.17505e-15 0)
(4.78698e-16 -4.89981e-15 0)
(9.34572e-16 -6.34842e-15 0)
(1.50644e-15 -7.55018e-15 0)
(2.17803e-15 -8.53045e-15 0)
(2.93324e-15 -9.31092e-15 0)
(3.75435e-15 -9.91088e-15 0)
(4.62524e-15 -1.03465e-14 0)
(5.53147e-15 -1.06316e-14 0)
(6.45948e-15 -1.07786e-14 0)
(7.39653e-15 -1.07988e-14 0)
(8.33148e-15 -1.07018e-14 0)
(9.25408e-15 -1.0497e-14 0)
(1.01548e-14 -1.01928e-14 0)
(1.10251e-14 -9.79721e-15 0)
(1.18571e-14 -9.31788e-15 0)
(1.26438e-14 -8.76201e-15 0)
(1.33788e-14 -8.13673e-15 0)
(1.40563e-14 -7.44896e-15 0)
(1.46711e-14 -6.70538e-15 0)
(1.52187e-14 -5.91262e-15 0)
(1.56951e-14 -5.07729e-15 0)
(1.60967e-14 -4.20573e-15 0)
(1.64208e-14 -3.30422e-15 0)
(1.66653e-14 -2.37892e-15 0)
(1.68287e-14 -1.43611e-15 0)
(1.69105e-14 -4.82486e-16 0)
(1.69105e-14 4.74793e-16 0)
(1.68287e-14 1.42846e-15 0)
(1.66653e-14 2.37141e-15 0)
(1.64209e-14 3.29692e-15 0)
(1.60968e-14 4.19871e-15 0)
(1.56951e-14 5.0706e-15 0)
(1.52188e-14 5.90634e-15 0)
(1.46712e-14 6.69956e-15 0)
(1.40564e-14 7.44367e-15 0)
(1.3379e-14 8.13206e-15 0)
(1.2644e-14 8.75798e-15 0)
(1.18573e-14 9.31454e-15 0)
(1.10253e-14 9.79465e-15 0)
(1.0155e-14 1.0191e-14 0)
(9.25426e-15 1.04961e-14 0)
(8.33166e-15 1.07017e-14 0)
(7.39658e-15 1.07996e-14 0)
(6.45934e-15 1.07805e-14 0)
(5.53136e-15 1.06343e-14 0)
(4.62515e-15 1.03502e-14 0)
(3.75373e-15 9.91575e-15 0)
(2.9322e-15 9.31654e-15 0)
(2.17791e-15 8.53682e-15 0)
(1.5059e-15 7.55793e-15 0)
(9.3242e-16 6.35621e-15 0)
(4.78369e-16 4.9073e-15 0)
(1.76297e-16 3.1826e-15 0)
(1.47732e-18 1.20082e-15 0)
(1.01662e-18 -1.27584e-15 0)
(1.46866e-16 -3.39588e-15 0)
(4.00284e-16 -5.25328e-15 0)
(7.82654e-16 -6.81961e-15 0)
(1.26342e-15 -8.12305e-15 0)
(1.82944e-15 -9.18856e-15 0)
(2.46721e-15 -1.00386e-14 0)
(3.16182e-15 -1.06929e-14 0)
(3.8999e-15 -1.11684e-14 0)
(4.66872e-15 -1.14802e-14 0)
(5.45662e-15 -1.1642e-14 0)
(6.253e-15 -1.16657e-14 0)
(7.04798e-15 -1.15621e-14 0)
(7.83263e-15 -1.13415e-14 0)
(8.59891e-15 -1.10132e-14 0)
(9.33939e-15 -1.05858e-14 0)
(1.00474e-14 -1.00678e-14 0)
(1.07169e-14 -9.46692e-15 0)
(1.13422e-14 -8.79103e-15 0)
(1.19186e-14 -8.04751e-15 0)
(1.24417e-14 -7.24372e-15 0)
(1.29074e-14 -6.3868e-15 0)
(1.33125e-14 -5.48383e-15 0)
(1.36541e-14 -4.54174e-15 0)
(1.39298e-14 -3.56742e-15 0)
(1.41377e-14 -2.56774e-15 0)
(1.42768e-14 -1.54963e-15 0)
(1.43465e-14 -5.2029e-16 0)
(1.43463e-14 5.12838e-16 0)
(1.42765e-14 1.54229e-15 0)
(1.41371e-14 2.56057e-15 0)
(1.3929e-14 3.56045e-15 0)
(1.36531e-14 4.53504e-15 0)
(1.33113e-14 5.47747e-15 0)
(1.2906e-14 6.38084e-15 0)
(1.24401e-14 7.23822e-15 0)
(1.19169e-14 8.04255e-15 0)
(1.13403e-14 8.78661e-15 0)
(1.07148e-14 9.46313e-15 0)
(1.00453e-14 1.00646e-14 0)
(9.33718e-15 1.05834e-14 0)
(8.59662e-15 1.10116e-14 0)
(7.83028e-15 1.13407e-14 0)
(7.04558e-15 1.15622e-14 0)
(6.25062e-15 1.16666e-14 0)
(5.4543e-15 1.16439e-14 0)
(4.6663e-15 1.14831e-14 0)
(3.89741e-15 1.11722e-14 0)
(3.15966e-15 1.06976e-14 0)
(2.46525e-15 1.00444e-14 0)
(1.82694e-15 9.19519e-15 0)
(1.26131e-15 8.12988e-15 0)
(7.82223e-16 6.82708e-15 0)
(3.99218e-16 5.26089e-15 0)
(1.45803e-16 3.40213e-15 0)
(1.36702e-18 1.27767e-15 0)
(8.15203e-19 -1.33916e-15 0)
(1.18978e-16 -3.57796e-15 0)
(3.24519e-16 -5.54507e-15 0)
(6.3533e-16 -7.20933e-15 0)
(1.02671e-15 -8.59802e-15 0)
(1.48819e-15 -9.7354e-15 0)
(2.00914e-15 -1.06443e-14 0)
(2.57751e-15 -1.13446e-14 0)
(3.18211e-15 -1.18542e-14 0)
(3.81245e-15 -1.21891e-14 0)
(4.45906e-15 -1.23638e-14 0)
(5.113e-15 -1.23908e-14 0)
(5.76605e-15 -1.2282e-14 0)
(6.41083e-15 -1.20486e-14 0)
(7.04072e-15 -1.17002e-14 0)
(7.64949e-15 -1.12463e-14 0)
(8.23156e-15 -1.06958e-14 0)
(8.78192e-15 -1.00573e-14 0)
(9.29608e-15 -9.33892e-15 0)
(9.76993e-15 -8.54872e-15 0)
(1.01998e-14 -7.69444e-15 0)
(1.05827e-14 -6.78375e-15 0)
(1.09156e-14 -5.82411e-15 0)
(1.11963e-14 -4.82301e-15 0)
(1.14228e-14 -3.78782e-15 0)
(1.15937e-14 -2.7259e-15 0)
(1.17081e-14 -1.64469e-15 0)
(1.17652e-14 -5.51832e-16 0)
(1.1765e-14 5.44953e-16 0)
(1.17074e-14 1.63787e-15 0)
(1.15926e-14 2.71919e-15 0)
(1.14213e-14 3.78133e-15 0)
(1.11943e-14 4.81677e-15 0)
(1.09132e-14 5.81819e-15 0)
(1.05799e-14 6.7782e-15 0)
(1.01968e-14 7.68932e-15 0)
(9.76653e-15 8.54407e-15 0)
(9.2924e-15 9.33482e-15 0)
(8.77803e-15 1.00538e-14 0)
(8.22746e-15 1.06929e-14 0)
(7.64523e-15 1.12441e-14 0)
(7.03636e-15 1.16988e-14 0)
(6.40641e-15 1.2048e-14 0)
(5.76161e-15 1.22822e-14 0)
(5.10861e-15 1.23919e-14 0)
(4.45473e-15 1.23658e-14 0)
(3.80821e-15 1.2192e-14 0)
(3.17822e-15 1.18581e-14 0)
(2.57381e-15 1.13493e-14 0)
(2.00557e-15 1.06497e-14 0)
(1.48555e-15 9.74163e-15 0)
(1.02459e-15 8.60507e-15 0)
(6.32907e-16 7.21622e-15 0)
(3.23543e-16 5.55134e-15 0)
(1.1888e-16 3.58401e-15 0)
(9.49908e-19 1.34075e-15 0)
(6.25504e-19 -1.38939e-15 0)
(9.19645e-17 -3.72261e-15 0)
(2.50924e-16 -5.777e-15 0)
(4.91429e-16 -7.51966e-15 0)
(7.94741e-16 -8.9767e-15 0)
(1.15298e-15 -1.0172e-14 0)
(1.55777e-15 -1.11284e-14 0)
(2e-15 -1.18662e-14 0)
(2.47077e-15 -1.24037e-14 0)
(2.96184e-15 -1.27575e-14 0)
(3.46625e-15 -1.29431e-14 0)
(3.97628e-15 -1.29731e-14 0)
(4.48588e-15 -1.28601e-14 0)
(4.9892e-15 -1.26165e-14 0)
(5.48113e-15 -1.22521e-14 0)
(5.95652e-15 -1.17769e-14 0)
(6.41106e-15 -1.12004e-14 0)
(6.84085e-15 -1.05316e-14 0)
(7.24232e-15 -9.77911e-15 0)
(7.61232e-15 -8.95139e-15 0)
(7.948e-15 -8.05652e-15 0)
(8.24686e-15 -7.10257e-15 0)
(8.50675e-15 -6.09744e-15 0)
(8.72583e-15 -5.04894e-15 0)
(8.90265e-15 -3.96483e-15 0)
(9.03607e-15 -2.85292e-15 0)
(9.12531e-15 -1.72102e-15 0)
(9.16986e-15 -5.77087e-16 0)
(9.16953e-15 5.70916e-16 0)
(9.12432e-15 1.71491e-15 0)
(9.03449e-15 2.84692e-15 0)
(8.9005e-15 3.95899e-15 0)
(8.72309e-15 5.04332e-15 0)
(8.50345e-15 6.0921e-15 0)
(8.24304e-15 7.09758e-15 0)
(7.9437e-15 8.05193e-15 0)
(7.6076e-15 8.94722e-15 0)
(7.23723e-15 9.77547e-15 0)
(6.83541e-15 1.05285e-14 0)
(6.40536e-15 1.11979e-14 0)
(5.9506e-15 1.1775e-14 0)
(5.47507e-15 1.22509e-14 0)
(4.9831e-15 1.2616e-14 0)
(4.47979e-15 1.28604e-14 0)
(3.9702e-15 1.29741e-14 0)
(3.46043e-15 1.2945e-14 0)
(2.95635e-15 1.27602e-14 0)
(2.46542e-15 1.24072e-14 0)
(1.99512e-15 1.18705e-14 0)
(1.55378e-15 1.11336e-14 0)
(1.14939e-15 1.01776e-14 0)
(7.91567e-16 8.98243e-15 0)
(4.89721e-16 7.52588e-15 0)
(2.49892e-16 5.78315e-15 0)
(9.10987e-17 3.72732e-15 0)
(8.22067e-19 1.39087e-15 0)
(3.91304e-19 -1.42686e-15 0)
(6.55188e-17 -3.83057e-15 0)
(1.7874e-16 -5.9503e-15 0)
(3.50161e-16 -7.75174e-15 0)
(5.66584e-16 -9.26004e-15 0)
(8.2229e-16 -1.04991e-14 0)
(1.11144e-15 -1.14916e-14 0)
(1.4276e-15 -1.22579e-14 0)
(1.76449e-15 -1.28167e-14 0)
(2.11577e-15 -1.31851e-14 0)
(2.47751e-15 -1.3379e-14 0)
(2.84195e-15 -1.34113e-14 0)
(3.20771e-15 -1.32955e-14 0)
(3.56807e-15 -1.30442e-14 0)
(3.9207e-15 -1.26677e-14 0)
(4.2614e-15 -1.21764e-14 0)
(4.58712e-15 -1.15803e-14 0)
(4.89512e-15 -1.08887e-14 0)
(5.18281e-15 -1.01105e-14 0)
(5.44792e-15 -9.25445e-15 0)
(5.68842e-15 -8.32904e-15 0)
(5.90251e-15 -7.34251e-15 0)
(6.08867e-15 -6.30309e-15 0)
(6.2456e-15 -5.21888e-15 0)
(6.37221e-15 -4.09798e-15 0)
(6.4677e-15 -2.94844e-15 0)
(6.53152e-15 -1.77839e-15 0)
(6.56332e-15 -5.95958e-16 0)
(6.56295e-15 5.90605e-16 0)
(6.53038e-15 1.77308e-15 0)
(6.46578e-15 2.94326e-15 0)
(6.36952e-15 4.09295e-15 0)
(6.24221e-15 5.21406e-15 0)
(6.08462e-15 6.29852e-15 0)
(5.89784e-15 7.33822e-15 0)
(5.68316e-15 8.32508e-15 0)
(5.44211e-15 9.2509e-15 0)
(5.17654e-15 1.01074e-14 0)
(4.88845e-15 1.0886e-14 0)
(4.58013e-15 1.15781e-14 0)
(4.25417e-15 1.21748e-14 0)
(3.9133e-15 1.26667e-14 0)
(3.56061e-15 1.30438e-14 0)
(3.20029e-15 1.32958e-14 0)
(2.83466e-15 1.34122e-14 0)
(2.47048e-15 1.33807e-14 0)
(2.10904e-15 1.31874e-14 0)
(1.75834e-15 1.28198e-14 0)
(1.42218e-15 1.22617e-14 0)
(1.10634e-15 1.14958e-14 0)
(8.18056e-16 1.0504e-14 0)
(5.63834e-16 9.26551e-15 0)
(3.47946e-16 7.75681e-15 0)
(1.7719e-16 5.95495e-15 0)
(6.50204e-17 3.83497e-15 0)
(4.37613e-19 1.428e-15 0)
(1.9153e-19 -1.45179e-15 0)
(3.94926e-17 -3.90239e-15 0)
(1.07622e-16 -6.06573e-15 0)
(2.10724e-16 -7.90622e-15 0)
(3.40905e-16 -9.44892e-15 0)
(4.94652e-16 -1.07173e-14 0)
(6.68535e-16 -1.17339e-14 0)
(8.58792e-16 -1.25194e-14 0)
(1.06137e-15 -1.30926e-14 0)
(1.27252e-15 -1.34706e-14 0)
(1.49436e-15 -1.36682e-14 0)
(1.70671e-15 -1.37011e-14 0)
(1.93145e-15 -1.35863e-14 0)
(2.14781e-15 -1.333e-14 0)
(2.35991e-15 -1.29455e-14 0)
(2.56486e-15 -1.24434e-14 0)
(2.76075e-15 -1.18342e-14 0)
(2.94604e-15 -1.11273e-14 0)
(3.11913e-15 -1.0332e-14 0)
(3.2786e-15 -9.45701e-15 0)
(3.42325e-15 -8.51113e-15 0)
(3.552e-15 -7.50281e-15 0)
(3.6639e-15 -6.44047e-15 0)
(3.75818e-15 -5.33239e-15 0)
(3.83422e-15 -4.18688e-15 0)
(3.89154e-15 -3.01216e-15 0)
(3.92979e-15 -1.81656e-15 0)
(3.94874e-15 -6.08381e-16 0)
(3.94827e-15 6.03999e-16 0)
(3.92845e-15 1.81221e-15 0)
(3.88936e-15 3.00789e-15 0)
(3.8312e-15 4.18273e-15 0)
(3.75435e-15 5.32842e-15 0)
(3.65928e-15 6.43669e-15 0)
(3.54664e-15 7.49929e-15 0)
(3.41723e-15 8.50786e-15 0)
(3.27199e-15 9.45408e-15 0)
(3.11197e-15 1.03294e-14 0)
(2.93843e-15 1.11251e-14 0)
(2.75278e-15 1.18324e-14 0)
(2.55662e-15 1.24421e-14 0)
(2.3515e-15 1.29446e-14 0)
(2.13934e-15 1.33297e-14 0)
(1.92304e-15 1.35865e-14 0)
(1.69841e-15 1.37019e-14 0)
(1.48645e-15 1.36696e-14 0)
(1.2651e-15 1.34726e-14 0)
(1.05448e-15 1.30951e-14 0)
(8.52424e-16 1.25225e-14 0)
(6.63365e-16 1.17376e-14 0)
(4.9063e-16 1.07214e-14 0)
(3.37021e-16 9.45292e-15 0)
(2.08134e-16 7.91057e-15 0)
(1.06754e-16 6.07003e-15 0)
(3.88114e-17 3.90568e-15 0)
(3.81032e-19 1.45279e-15 0)
(8.39189e-20 -1.46434e-15 0)
(1.36588e-17 -3.93865e-15 0)
(3.71006e-17 -6.12381e-15 0)
(7.23309e-17 -7.98398e-15 0)
(1.16673e-16 -9.54389e-15 0)
(1.68864e-16 -1.08269e-14 0)
(2.27681e-16 -1.18555e-14 0)
(2.92013e-16 -1.26504e-14 0)
(3.60147e-16 -1.32308e-14 0)
(4.2949e-16 -1.36141e-14 0)
(5.04661e-16 -1.3816e-14 0)
(5.77691e-16 -1.3853e-14 0)
(6.5887e-16 -1.37332e-14 0)
(7.27616e-16 -1.3473e-14 0)
(7.98338e-16 -1.30841e-14 0)
(8.67052e-16 -1.2577e-14 0)
(9.32652e-16 -1.19614e-14 0)
(9.94728e-16 -1.12469e-14 0)
(1.05272e-15 -1.04429e-14 0)
(1.10612e-15 -9.55849e-15 0)
(1.15451e-15 -8.60231e-15 0)
(1.19752e-15 -7.58307e-15 0)
(1.23486e-15 -6.50919e-15 0)
(1.26627e-15 -5.38914e-15 0)
(1.29154e-15 -4.23124e-15 0)
(1.31049e-15 -3.0439e-15 0)
(1.32301e-15 -1.83545e-15 0)
(1.32905e-15 -6.14366e-16 0)
(1.32858e-15 6.10981e-16 0)
(1.32157e-15 1.83213e-15 0)
(1.3081e-15 3.04063e-15 0)
(1.28824e-15 4.22806e-15 0)
(1.26209e-15 5.38607e-15 0)
(1.22985e-15 6.50628e-15 0)
(1.19172e-15 7.58034e-15 0)
(1.14797e-15 8.59983e-15 0)
(1.09894e-15 9.55624e-15 0)
(1.04495e-15 1.0441e-14 0)
(9.86482e-16 1.12452e-14 0)
(9.24016e-16 1.196e-14 0)
(8.58118e-16 1.2576e-14 0)
(7.89241e-16 1.30835e-14 0)
(7.18475e-16 1.34727e-14 0)
(6.49809e-16 1.37334e-14 0)
(5.68832e-16 1.38536e-14 0)
(4.96184e-16 1.3817e-14 0)
(4.21423e-16 1.36156e-14 0)
(3.52786e-16 1.32327e-14 0)
(2.85676e-16 1.26527e-14 0)
(2.21931e-16 1.18581e-14 0)
(1.63745e-16 1.08299e-14 0)
(1.13529e-16 9.54727e-15 0)
(7.03762e-17 7.9872e-15 0)
(3.51117e-17 6.12668e-15 0)
(1.27926e-17 3.94162e-15 0)
(4.94073e-20 1.46504e-15 0)
(-1.4341e-19 -1.46466e-15 0)
(-1.19632e-17 -3.93944e-15 0)
(-3.32086e-17 -6.12487e-15 0)
(-6.57723e-17 -7.98523e-15 0)
(-1.07068e-16 -9.54517e-15 0)
(-1.56263e-16 -1.08282e-14 0)
(-2.12213e-16 -1.18567e-14 0)
(-2.73563e-16 -1.26516e-14 0)
(-3.39008e-16 -1.3232e-14 0)
(-4.05922e-16 -1.36152e-14 0)
(-4.78628e-16 -1.3817e-14 0)
(-5.49559e-16 -1.38539e-14 0)
(-6.28746e-16 -1.3734e-14 0)
(-6.95714e-16 -1.34737e-14 0)
(-7.64882e-16 -1.30847e-14 0)
(-8.32245e-16 -1.25776e-14 0)
(-8.96688e-16 -1.19618e-14 0)
(-9.57803e-16 -1.12473e-14 0)
(-1.01503e-15 -1.04432e-14 0)
(-1.06785e-15 -9.55864e-15 0)
(-1.11587e-15 -8.60239e-15 0)
(-1.15868e-15 -7.58302e-15 0)
(-1.196e-15 -6.50907e-15 0)
(-1.22757e-15 -5.38893e-15 0)
(-1.25317e-15 -4.23096e-15 0)
(-1.27263e-15 -3.04354e-15 0)
(-1.28584e-15 -1.83504e-15 0)
(-1.29272e-15 -6.13854e-16 0)
(-1.29321e-15 6.11543e-16 0)
(-1.28733e-15 1.83273e-15 0)
(-1.27512e-15 3.04128e-15 0)
(-1.25662e-15 4.22878e-15 0)
(-1.23194e-15 5.38683e-15 0)
(-1.20125e-15 6.50711e-15 0)
(-1.16473e-15 7.58116e-15 0)
(-1.12267e-15 8.60068e-15 0)
(-1.07537e-15 9.55708e-15 0)
(-1.02313e-15 1.04418e-14 0)
(-9.66417e-16 1.12461e-14 0)
(-9.05703e-16 1.19609e-14 0)
(-8.41553e-16 1.25768e-14 0)
(-7.74378e-16 1.30842e-14 0)
(-7.0524e-16 1.34734e-14 0)
(-6.38186e-16 1.37341e-14 0)
(-5.5876e-16 1.38542e-14 0)
(-4.87458e-16 1.38176e-14 0)
(-4.14083e-16 1.36161e-14 0)
(-3.46602e-16 1.32331e-14 0)
(-2.80629e-16 1.26531e-14 0)
(-2.17912e-16 1.18586e-14 0)
(-1.60407e-16 1.08301e-14 0)
(-1.11222e-16 9.54714e-15 0)
(-6.89734e-17 7.98751e-15 0)
(-3.39961e-17 6.12723e-15 0)
(-1.25445e-17 3.94141e-15 0)
(-6.31722e-20 1.46512e-15 0)
(-3.58534e-19 -1.45264e-15 0)
(-3.77829e-17 -3.90484e-15 0)
(-1.03843e-16 -6.06886e-15 0)
(-2.04275e-16 -7.90982e-15 0)
(-3.31468e-16 -9.45274e-15 0)
(-4.82365e-16 -1.07211e-14 0)
(-6.53474e-16 -1.17376e-14 0)
(-8.40873e-16 -1.25229e-14 0)
(-1.04085e-15 -1.30959e-14 0)
(-1.24958e-15 -1.34738e-14 0)
(-1.46911e-15 -1.36711e-14 0)
(-1.67932e-15 -1.37037e-14 0)
(-1.90228e-15 -1.35886e-14 0)
(-2.11694e-15 -1.33321e-14 0)
(-2.32755e-15 -1.29472e-14 0)
(-2.53122e-15 -1.24449e-14 0)
(-2.72599e-15 -1.18354e-14 0)
(-2.91035e-15 -1.11283e-14 0)
(-3.0827e-15 -1.03327e-14 0)
(-3.24162e-15 -9.45743e-15 0)
(-3.38587e-15 -8.51128e-15 0)
(-3.51442e-15 -7.50271e-15 0)
(-3.62634e-15 -6.44012e-15 0)
(-3.72078e-15 -5.3318e-15 0)
(-3.79715e-15 -4.18604e-15 0)
(-3.85496e-15 -3.0111e-15 0)
(-3.89383e-15 -1.81529e-15 0)
(-3.91359e-15 -6.06918e-16 0)
(-3.91411e-15 6.05663e-16 0)
(-3.89536e-15 1.81405e-15 0)
(-3.85745e-15 3.0099e-15 0)
(-3.80061e-15 4.18487e-15 0)
(-3.72516e-15 5.33067e-15 0)
(-3.63161e-15 6.43904e-15 0)
(-3.52056e-15 7.50171e-15 0)
(-3.39277e-15 8.51034e-15 0)
(-3.24919e-15 9.45658e-15 0)
(-3.09087e-15 1.03319e-14 0)
(-2.91905e-15 1.11276e-14 0)
(-2.7351e-15 1.18349e-14 0)
(-2.54061e-15 1.24445e-14 0)
(-2.33714e-15 1.29469e-14 0)
(-2.12657e-15 1.33319e-14 0)
(-1.9118e-15 1.35885e-14 0)
(-1.68856e-15 1.37037e-14 0)
(-1.47801e-15 1.36713e-14 0)
(-1.25804e-15 1.34741e-14 0)
(-1.04852e-15 1.30965e-14 0)
(-8.4738e-16 1.25236e-14 0)
(-6.59467e-16 1.17383e-14 0)
(-4.87903e-16 1.07221e-14 0)
(-3.34691e-16 9.45397e-15 0)
(-2.06036e-16 7.91086e-15 0)
(-1.06105e-16 6.0701e-15 0)
(-3.89848e-17 3.90627e-15 0)
(-3.33078e-19 1.45286e-15 0)
(-4.67682e-19 -1.42822e-15 0)
(-6.38534e-17 -3.83451e-15 0)
(-1.74987e-16 -5.95549e-15 0)
(-3.43999e-16 -7.75753e-15 0)
(-5.57607e-16 -9.26623e-15 0)
(-8.10573e-16 -1.05054e-14 0)
(-1.0972e-15 -1.14976e-14 0)
(-1.41075e-15 -1.22637e-14 0)
(-1.74523e-15 -1.2822e-14 0)
(-2.09431e-15 -1.31901e-14 0)
(-2.45392e-15 -1.33837e-14 0)
(-2.81648e-15 -1.34155e-14 0)
(-3.18054e-15 -1.32992e-14 0)
(-3.53932e-15 -1.30475e-14 0)
(-3.89059e-15 -1.26705e-14 0)
(-4.23008e-15 -1.21788e-14 0)
(-4.55477e-15 -1.15822e-14 0)
(-4.8619e-15 -1.08902e-14 0)
(-5.1489e-15 -1.01116e-14 0)
(-5.41349e-15 -9.25514e-15 0)
(-5.65365e-15 -8.32925e-15 0)
(-5.86757e-15 -7.34237e-15 0)
(-6.05369e-15 -6.3025e-15 0)
(-6.21074e-15 -5.21794e-15 0)
(-6.33765e-15 -4.09662e-15 0)
(-6.43362e-15 -2.94675e-15 0)
(-6.49807e-15 -1.77627e-15 0)
(-6.53061e-15 -5.93564e-16 0)
(-6.53108e-15 5.93368e-16 0)
(-6.49952e-15 1.77607e-15 0)
(-6.43606e-15 2.94655e-15 0)
(-6.34106e-15 4.0964e-15 0)
(-6.21506e-15 5.21776e-15 0)
(-6.05886e-15 6.30229e-15 0)
(-5.87353e-15 7.3422e-15 0)
(-5.66037e-15 8.32907e-15 0)
(-5.4209e-15 9.25499e-15 0)
(-5.15691e-15 1.01114e-14 0)
(-4.8704e-15 1.089e-14 0)
(-4.56367e-15 1.1582e-14 0)
(-4.23929e-15 1.21786e-14 0)
(-3.89996e-15 1.26703e-14 0)
(-3.54873e-15 1.30473e-14 0)
(-3.18986e-15 1.3299e-14 0)
(-2.82562e-15 1.34152e-14 0)
(-2.46268e-15 1.33834e-14 0)
(-2.10236e-15 1.31899e-14 0)
(-1.75278e-15 1.28217e-14 0)
(-1.4179e-15 1.22635e-14 0)
(-1.10278e-15 1.14976e-14 0)
(-8.14503e-16 1.05051e-14 0)
(-5.62012e-16 9.2661e-15 0)
(-3.47475e-16 7.75787e-15 0)
(-1.75658e-16 5.95601e-15 0)
(-6.44455e-17 3.83513e-15 0)
(-4.44492e-19 1.42826e-15 0)
(-7.63688e-19 -1.39125e-15 0)
(-9.03783e-17 -3.72816e-15 0)
(-2.4742e-16 -5.78408e-15 0)
(-4.85606e-16 -7.52763e-15 0)
(-7.86468e-16 -8.98499e-15 0)
(-1.14228e-15 -1.01804e-14 0)
(-1.54485e-15 -1.11366e-14 0)
(-1.98471e-15 -1.1874e-14 0)
(-2.45345e-15 -1.2411e-14 0)
(-2.9427e-15 -1.27643e-14 0)
(-3.4452e-15 -1.29494e-14 0)
(-3.95356e-15 -1.29787e-14 0)
(-4.46172e-15 -1.28652e-14 0)
(-4.96365e-15 -1.26209e-14 0)
(-5.45436e-15 -1.2256e-14 0)
(-5.92868e-15 -1.17801e-14 0)
(-6.38231e-15 -1.12031e-14 0)
(-6.81133e-15 -1.05336e-14 0)
(-7.2122e-15 -9.78068e-15 0)
(-7.58172e-15 -8.95227e-15 0)
(-7.91709e-15 -8.05694e-15 0)
(-8.21577e-15 -7.10231e-15 0)
(-8.47565e-15 -6.09671e-15 0)
(-8.69487e-15 -5.04757e-15 0)
(-8.87194e-15 -3.96305e-15 0)
(-9.00573e-15 -2.85053e-15 0)
(-9.09548e-15 -1.71827e-15 0)
(-9.14071e-15 -5.7376e-16 0)
(-9.1412e-15 5.74531e-16 0)
(-9.0969e-15 1.71904e-15 0)
(-9.00805e-15 2.85128e-15 0)
(-8.87512e-15 3.96379e-15 0)
(-8.6989e-15 5.04828e-15 0)
(-8.48051e-15 6.09741e-15 0)
(-8.22142e-15 7.10293e-15 0)
(-7.92344e-15 8.05749e-15 0)
(-7.58871e-15 8.95273e-15 0)
(-7.21975e-15 9.78108e-15 0)
(-6.81936e-15 1.05339e-14 0)
(-6.39073e-15 1.12033e-14 0)
(-5.93739e-15 1.17802e-14 0)
(-5.46323e-15 1.22559e-14 0)
(-4.97258e-15 1.26207e-14 0)
(-4.4706e-15 1.28648e-14 0)
(-3.96218e-15 1.29782e-14 0)
(-3.45347e-15 1.29487e-14 0)
(-2.95073e-15 1.27634e-14 0)
(-2.46066e-15 1.24102e-14 0)
(-1.99064e-15 1.1873e-14 0)
(-1.55074e-15 1.11353e-14 0)
(-1.14793e-15 1.01794e-14 0)
(-7.89327e-16 8.98426e-15 0)
(-4.87106e-16 7.52669e-15 0)
(-2.49999e-16 5.78346e-15 0)
(-9.1694e-17 3.72838e-15 0)
(-8.4769e-19 1.39101e-15 0)
(-8.95567e-19 -1.34145e-15 0)
(-1.17505e-16 -3.58502e-15 0)
(-3.21228e-16 -5.55376e-15 0)
(-6.30066e-16 -7.21909e-15 0)
(-1.01929e-15 -8.60813e-15 0)
(-1.47889e-15 -9.74547e-15 0)
(-1.99808e-15 -1.0654e-14 0)
(-2.56456e-15 -1.13539e-14 0)
(-3.16744e-15 -1.18629e-14 0)
(-3.79629e-15 -1.21972e-14 0)
(-4.44145e-15 -1.23712e-14 0)
(-5.09406e-15 -1.23975e-14 0)
(-5.74586e-15 -1.2288e-14 0)
(-6.38954e-15 -1.20538e-14 0)