/*--------------------------------*- C++ -*----------------------------------*\
| =========                 |                                                 |
| \\      /  F ield         | OpenFOAM: The Open Source CFD Toolbox           |
|  \\    /   O peration     | Version:  5.0                                   |
|   \\  /    A nd           | Web:      www.OpenFOAM.org                      |
|    \\/     M anipulation  |                                                 |
\*---------------------------------------------------------------------------*/
FoamFile
{
    version     2.0;
    format      ascii;
    class       surfaceScalarField;
    location    "1.6";
    object      phi;
}
// * * * * * * * * * * * * * * * * * * * * * * * * * * * * * * * * * * * * * //

dimensions      [0 3 -1 0 0 0 0];

internalField   nonuniform List<scalar> 
85
(
0.000100749
-1.32715e-19
0.000100749
8.32743e-20
0.000100749
-1.39828e-19
0.000100749
8.57804e-20
-1.25306e-20
0.000100749
-7.62218e-20
0.000100749
-7.09457e-20
0.000100749
2.10212e-20
0.000100749
1.87316e-19
-1.82689e-19
0.000100749
-1.35159e-19
0.000100749
-1.11501e-19
0.000100749
7.73539e-21
0.000100749
3.40936e-19
-6.48242e-21
0.000100749
-2.13628e-19
0.000100749
-1.00224e-19
0.000100749
6.51786e-20
0.000100749
4.88408e-19
7.06851e-20
0.000100749
-1.78734e-19
0.000100749
-3.18781e-19
0.000100749
9.63711e-20
0.000100749
5.16914e-19
4.94369e-21
0.000100749
-1.9586e-19
0.000100749
-3.97717e-19
0.000100749
2.28327e-20
0.000100749
6.23264e-19
9.24879e-20
0.000100749
-1.81019e-19
0.000100749
-4.62847e-19
0.000100749
-4.63011e-21
0.000100749
7.94754e-19
1.10073e-19
0.000100749
-4.50334e-19
0.000100749
-4.95764e-19
0.000100749
-2.51646e-19
0.000100749
8.38155e-19
1.95476e-19
0.000100749
-4.63269e-19
0.000100749
-4.20737e-19
0.000100749
-3.9783e-20
0.000100749
6.15796e-19
2.58757e-19
0.000100749
0.000100749
0.000100749
0.000100749
)
;

boundaryField
{
    top
    {
        type            calculated;
        value           nonuniform List<scalar> 5(-4.7765e-19 -4.37607e-19 -1.43126e-19 8.06246e-19 1.55522e-19);
    }
    bottom
    {
        type            symmetryPlane;
        value           uniform 0;
    }
    inlet
    {
        type            calculated;
        value           nonuniform 0();
    }
    outlet
    {
        type            calculated;
        value           nonuniform List<scalar> 10(0.000100749 0.000100749 0.000100749 0.000100749 0.000100749 0.000100749 0.000100749 0.000100749 0.000100749 0.000100749);
    }
    frontAndBack
    {
        type            empty;
        value           nonuniform 0();
    }
    procBoundary1to0
    {
        type            processor;
        value           nonuniform List<scalar> 10(-0.000100749 -0.000100749 -0.000100749 -0.000100749 -0.000100749 -0.000100749 -0.000100749 -0.000100749 -0.000100749 -0.000100749);
    }
}


// ************************************************************************* //
