/*--------------------------------*- C++ -*----------------------------------*\
| =========                 |                                                 |
| \\      /  F ield         | OpenFOAM: The Open Source CFD Toolbox           |
|  \\    /   O peration     | Version:  5.0                                   |
|   \\  /    A nd           | Web:      www.OpenFOAM.org                      |
|    \\/     M anipulation  |                                                 |
\*---------------------------------------------------------------------------*/
FoamFile
{
    version     2.0;
    format      ascii;
    class       volVectorField;
    location    "1.6";
    object      U;
}
// * * * * * * * * * * * * * * * * * * * * * * * * * * * * * * * * * * * * * //

dimensions      [0 1 -1 0 0 0 0];

internalField   nonuniform List<vector> 
50
(
(1.00749 -6.32769e-17 -6.38144e-37)
(1.00749 4.18285e-17 -1.78652e-36)
(1.00749 -5.92356e-17 1.52781e-36)
(1.00749 1.76824e-17 -2.87452e-36)
(1.00749 -4.01433e-17 1.3865e-36)
(1.00749 -1.14542e-16 -3.36674e-36)
(1.00749 -1.87549e-17 -1.81692e-36)
(1.00749 -1.94421e-17 -1.59889e-37)
(1.00749 7.67686e-17 -1.81692e-36)
(1.00749 -1.53634e-16 5.54609e-36)
(1.00749 -1.17811e-16 7.00239e-36)
(1.00749 -8.23565e-17 -2.97974e-37)
(1.00749 2.62396e-17 7.18772e-36)
(1.00749 2.6404e-16 2.04318e-52)
(1.00749 -9.51852e-17 -3.60836e-36)
(1.00749 -1.8333e-16 4.91657e-36)
(1.00749 -9.24329e-17 1.51712e-36)
(1.00749 4.83942e-17 3.63383e-36)
(1.00749 4.1888e-16 6.54089e-38)
(1.00749 3.74463e-17 1.82118e-36)
(1.00749 -2.11387e-16 -5.34173e-37)
(1.00749 -1.80821e-16 -2.99791e-37)
(1.00749 7.90551e-17 -5.45075e-36)
(1.00749 5.12144e-16 0)
(1.00749 3.45534e-17 0)
(1.00749 -1.78063e-16 -8.90585e-49)
(1.00749 -3.20752e-16 7.26766e-36)
(1.00749 4.00872e-17 -1.09015e-35)
(1.00749 6.14613e-16 0)
(1.00749 4.4223e-17 0)
(1.00749 -1.61774e-16 9.36075e-36)
(1.00749 -4.27989e-16 7.56927e-36)
(1.00749 1.83989e-18 -3.79735e-36)
(1.00749 7.21589e-16 1.67156e-36)
(1.00749 9.93026e-17 0)
(1.00749 -3.00803e-16 1.09015e-35)
(1.00749 -4.52454e-16 -3.02335e-36)
(1.00749 -1.46905e-16 -7.99443e-38)
(1.00749 8.28468e-16 -7.44935e-38)
(1.00749 1.6614e-16 -3.15671e-38)
(1.00749 -4.65735e-16 3.17364e-49)
(1.00749 -4.45978e-16 -1.81692e-36)
(1.00749 -1.43215e-16 2.25924e-49)
(1.00749 8.0029e-16 7.08597e-38)
(1.00749 2.37641e-16 3.60715e-36)
(1.00749 -4.72546e-16 -5.46827e-37)
(1.00749 -4.37603e-16 1.15556e-36)
(1.00749 -9.41387e-17 -6.87832e-36)
(1.00749 7.62362e-16 -4.02382e-37)
(1.00749 2.04678e-16 2.16019e-36)
)
;

boundaryField
{
    top
    {
        type            zeroGradient;
    }
    bottom
    {
        type            symmetryPlane;
    }
    inlet
    {
        type            pressureInletVelocity;
        value           nonuniform 0();
    }
    outlet
    {
        type            inletOutlet;
        inletValue      uniform (1 0 0);
        value           nonuniform List<vector> 10((1.00749 -4.01433e-17 1.3865e-36) (1.00749 -1.53634e-16 5.54609e-36) (1.00749 -9.51852e-17 -3.60836e-36) (1.00749 3.74463e-17 1.82118e-36) (1.00749 3.45534e-17 0) (1.00749 4.4223e-17 0) (1.00749 9.93026e-17 0) (1.00749 1.6614e-16 -3.15671e-38) (1.00749 2.37641e-16 3.60715e-36) (1.00749 2.04678e-16 2.16019e-36));
    }
    frontAndBack
    {
        type            empty;
    }
    procBoundary1to0
    {
        type            processor;
        value           nonuniform List<vector> 10((1.00749 -5.6471e-17 -5.70101e-50) (1.00749 -2.06261e-16 1.27184e-37) (1.00749 -2.1109e-16 2.39833e-37) (1.00749 -1.48784e-16 3.40853e-36) (1.00749 -1.79428e-16 3.4158e-36) (1.00749 -1.60317e-16 1.03564e-37) (1.00749 -1.03043e-16 -9.08458e-36) (1.00749 -1.7384e-16 -2.77988e-37) (1.00749 -2.46414e-16 -3.63383e-36) (1.00749 -2.71145e-16 -2.29277e-36));
    }
}


// ************************************************************************* //
