/*--------------------------------*- C++ -*----------------------------------*\
| =========                 |                                                 |
| \\      /  F ield         | OpenFOAM: The Open Source CFD Toolbox           |
|  \\    /   O peration     | Version:  5.0                                   |
|   \\  /    A nd           | Web:      www.OpenFOAM.org                      |
|    \\/     M anipulation  |                                                 |
\*---------------------------------------------------------------------------*/
FoamFile
{
    version     2.0;
    format      ascii;
    class       volScalarField;
    location    "0.2";
    object      nu;
}
// * * * * * * * * * * * * * * * * * * * * * * * * * * * * * * * * * * * * * //

dimensions      [0 2 -1 0 0 0 0];

internalField   nonuniform List<scalar> 
50
(
0.61077
0.61077
0.61077
0.61077
0.61077
0.610784
0.610784
0.610784
0.610784
0.610784
0.610809
0.610809
0.610809
0.610809
0.610809
0.610842
0.610842
0.610842
0.610842
0.610842
0.610881
0.610881
0.610881
0.610881
0.610882
0.610923
0.610923
0.610923
0.610923
0.610923
0.610962
0.610962
0.610962
0.610962
0.610962
0.610996
0.610996
0.610996
0.610996
0.610996
0.61102
0.61102
0.61102
0.61102
0.61102
0.611035
0.611035
0.611035
0.611035
0.611035
)
;

boundaryField
{
    top
    {
        type            calculated;
        value           nonuniform List<scalar> 5(0.611039 0.611039 0.611039 0.611039 0.611039);
    }
    bottom
    {
        type            calculated;
        value           nonuniform List<scalar> 5(0.610765 0.610765 0.610765 0.610765 0.610765);
    }
    inlet
    {
        type            calculated;
        value           nonuniform 0();
    }
    outlet
    {
        type            calculated;
        value           nonuniform List<scalar> 10(0.61077 0.610784 0.610809 0.610842 0.610882 0.610923 0.610962 0.610996 0.61102 0.611035);
    }
    frontAndBack
    {
        type            empty;
    }
    procBoundary1to0
    {
        type            processor;
        value           nonuniform List<scalar> 10(0.61077 0.610784 0.610809 0.610842 0.610881 0.610923 0.610962 0.610996 0.61102 0.611035);
    }
}


// ************************************************************************* //
