/*--------------------------------*- C++ -*----------------------------------*\
| =========                 |                                                 |
| \\      /  F ield         | OpenFOAM: The Open Source CFD Toolbox           |
|  \\    /   O peration     | Version:  5.0                                   |
|   \\  /    A nd           | Web:      www.OpenFOAM.org                      |
|    \\/     M anipulation  |                                                 |
\*---------------------------------------------------------------------------*/
FoamFile
{
    version     2.0;
    format      ascii;
    class       volScalarField;
    location    "0.2";
    object      p;
}
// * * * * * * * * * * * * * * * * * * * * * * * * * * * * * * * * * * * * * //

dimensions      [0 2 -2 0 0 0 0];

internalField   nonuniform List<scalar> 
50
(
-5.85177e-10
-1.73099e-08
-1.81132e-08
-4.02893e-08
-3.71325e-08
-5.76765e-10
-1.73196e-08
-1.80979e-08
-4.02439e-08
-3.71164e-08
-5.56333e-10
-1.73444e-08
-1.80637e-08
-4.03068e-08
-3.72458e-08
-5.41906e-10
-1.73628e-08
-1.80388e-08
-4.04305e-08
-3.74141e-08
-5.35968e-10
-1.73699e-08
-1.80288e-08
-4.0508e-08
-3.75064e-08
-5.38499e-10
-1.73672e-08
-1.80303e-08
-4.05088e-08
-3.75013e-08
-5.4854e-10
-1.73547e-08
-1.80436e-08
-4.04208e-08
-3.73862e-08
-5.68228e-10
-1.73313e-08
-1.80705e-08
-4.03039e-08
-3.72156e-08
-5.93704e-10
-1.73016e-08
-1.81061e-08
-4.02436e-08
-3.70824e-08
-6.08551e-10
-1.72872e-08
-1.81213e-08
-4.03038e-08
-3.71101e-08
)
;

boundaryField
{
    top
    {
        type            zeroGradient;
    }
    bottom
    {
        type            zeroGradient;
    }
    inlet
    {
        type            fixedValue;
        value           nonuniform 0();
    }
    outlet
    {
        type            fixedValue;
        value           uniform 0;
    }
    frontAndBack
    {
        type            empty;
    }
    procBoundary1to0
    {
        type            processor;
        value           nonuniform List<scalar> 10(3.56856e-09 3.55394e-09 3.52806e-09 3.50797e-09 3.49667e-09 3.4932e-09 3.49759e-09 3.51127e-09 3.5309e-09 3.53971e-09);
    }
}


// ************************************************************************* //
