/*--------------------------------*- C++ -*----------------------------------*\
| =========                 |                                                 |
| \\      /  F ield         | OpenFOAM: The Open Source CFD Toolbox           |
|  \\    /   O peration     | Version:  5.0                                   |
|   \\  /    A nd           | Web:      www.OpenFOAM.org                      |
|    \\/     M anipulation  |                                                 |
\*---------------------------------------------------------------------------*/
FoamFile
{
    version     2.0;
    format      ascii;
    class       volVectorField;
    location    "0.2";
    object      U;
}
// * * * * * * * * * * * * * * * * * * * * * * * * * * * * * * * * * * * * * //

dimensions      [0 1 -1 0 0 0 0];

internalField   nonuniform List<vector> 
50
(
(0.00499967 -1.41486e-12 2.90211e-32)
(0.00499967 1.83807e-12 7.6546e-33)
(0.00499967 -2.41716e-12 -8.88803e-33)
(0.00499967 7.32004e-12 -4.21462e-32)
(0.00499967 1.24762e-11 -6.2994e-32)
(0.0149991 -3.97909e-12 8.15245e-33)
(0.0149991 5.08926e-12 -3.53647e-32)
(0.0149991 -6.48839e-12 9.75194e-32)
(0.0149991 2.1723e-11 1.78858e-32)
(0.0149991 3.56129e-11 9.13677e-32)
(0.0249985 -5.06479e-12 -1.43053e-32)
(0.0249985 6.40597e-12 6.2063e-32)
(0.0249985 -7.81022e-12 -9.74935e-32)
(0.0249985 3.12971e-11 -1.90887e-31)
(0.0249985 4.81179e-11 4.10076e-31)
(0.0349982 -4.39809e-12 2.18645e-32)
(0.0349982 5.3121e-12 4.3956e-32)
(0.0349982 -5.90322e-12 -3.57389e-32)
(0.0349982 2.74455e-11 -1.98177e-32)
(0.0349982 4.03118e-11 2.67849e-31)
(0.044998 -2.447e-12 4.26861e-32)
(0.044998 2.49962e-12 1.78922e-32)
(0.044998 -2.00709e-12 8.73456e-33)
(0.044998 9.14307e-12 0)
(0.044998 1.37506e-11 0)
(0.054998 6.41601e-14 7.10852e-44)
(0.054998 -9.33897e-13 3.12344e-32)
(0.054998 2.43364e-12 -3.03161e-32)
(0.054998 -1.38651e-11 0)
(0.054998 -1.87557e-11 0)
(0.0649982 2.41178e-12 9.07888e-33)
(0.0649982 -4.0212e-12 5.55785e-32)
(0.0649982 6.27327e-12 6.01743e-33)
(0.0649982 -3.14013e-11 2.49194e-31)
(0.0649982 -4.44907e-11 0)
(0.0749985 3.89624e-12 9.23894e-32)
(0.0749985 -5.61149e-12 -9.00742e-32)
(0.0749985 8.01177e-12 2.15309e-31)
(0.0749985 -3.36671e-11 2.00803e-31)
(0.0749985 -5.06039e-11 -1.04086e-31)
(0.0849991 3.42288e-12 -4.12443e-32)
(0.0849991 -4.73333e-12 -4.5113e-32)
(0.0849991 6.60642e-12 -5.1906e-32)
(0.0849991 -2.28638e-11 -1.94095e-32)
(0.0849991 -3.68117e-11 -2.12209e-31)
(0.0949997 1.30404e-12 7.59533e-33)
(0.0949997 -1.74281e-12 -2.43427e-32)
(0.0949997 2.42031e-12 -2.10391e-32)
(0.0949997 -7.54835e-12 3.95917e-32)
(0.0949997 -1.26663e-11 -1.28072e-31)
)
;

boundaryField
{
    top
    {
        type            fixedValue;
        value           uniform (0.1 0 0);
    }
    bottom
    {
        type            fixedValue;
        value           uniform (0 0 0);
    }
    inlet
    {
        type            zeroGradient;
    }
    outlet
    {
        type            zeroGradient;
    }
    frontAndBack
    {
        type            empty;
    }
    procBoundary1to0
    {
        type            processor;
        value           nonuniform List<vector> 10((0.00499967 1.26958e-12 6.77434e-33) (0.0149991 3.41923e-12 -2.10924e-32) (0.0249985 3.91884e-12 -4.22039e-32) (0.0349982 2.57524e-12 7.43321e-32) (0.044998 3.27544e-13 5.7348e-32) (0.054998 -2.13152e-12 -2.11251e-32) (0.0649982 -4.0581e-12 1.84877e-32) (0.0749985 -4.83333e-12 6.33954e-32) (0.0849991 -3.82321e-12 2.90917e-32) (0.0949997 -1.38304e-12 4.08539e-33));
    }
}


// ************************************************************************* //
