/*--------------------------------*- C++ -*----------------------------------*\
| =========                 |                                                 |
| \\      /  F ield         | OpenFOAM: The Open Source CFD Toolbox           |
|  \\    /   O peration     | Version:  5.0                                   |
|   \\  /    A nd           | Web:      www.OpenFOAM.org                      |
|    \\/     M anipulation  |                                                 |
\*---------------------------------------------------------------------------*/
FoamFile
{
    version     2.0;
    format      ascii;
    class       volVectorField;
    location    "389";
    object      U;
}
// * * * * * * * * * * * * * * * * * * * * * * * * * * * * * * * * * * * * * //

dimensions      [0 1 -1 0 0 0 0];

internalField   nonuniform List<vector> 
1568
(
(1.47955e-16 -6.36149e-16 0)
(1.94447e-15 -1.4274e-15 0)
(5.30984e-15 -2.13837e-15 0)
(9.97733e-15 -2.62807e-15 0)
(1.54492e-14 -3.02098e-15 0)
(2.17003e-14 -3.40866e-15 0)
(2.85986e-14 -3.68307e-15 0)
(3.59577e-14 -3.89693e-15 0)
(4.36862e-14 -4.06206e-15 0)
(5.16768e-14 -4.16619e-15 0)
(5.98167e-14 -4.21925e-15 0)
(6.8011e-14 -4.22527e-15 0)
(7.61738e-14 -4.18673e-15 0)
(8.42213e-14 -4.10687e-15 0)
(9.20752e-14 -3.9893e-15 0)
(9.96648e-14 -3.83558e-15 0)
(1.06924e-13 -3.64924e-15 0)
(1.13792e-13 -3.43313e-15 0)
(1.20213e-13 -3.18983e-15 0)
(1.26138e-13 -2.92184e-15 0)
(1.31521e-13 -2.63194e-15 0)
(1.36325e-13 -2.32213e-15 0)
(1.40518e-13 -1.98834e-15 0)
(1.44038e-13 -1.57863e-15 0)
(1.4689e-13 -1.142e-15 0)
(1.49081e-13 -7.5077e-16 0)
(1.50591e-13 -3.79063e-16 0)
(1.51342e-13 -1.01709e-16 0)
(1.51347e-13 9.8043e-17 0)
(1.50607e-13 3.73596e-16 0)
(1.49109e-13 7.45019e-16 0)
(1.46927e-13 1.13529e-15 0)
(1.44084e-13 1.57265e-15 0)
(1.40573e-13 1.98353e-15 0)
(1.3639e-13 2.3179e-15 0)
(1.31595e-13 2.62732e-15 0)
(1.2622e-13 2.9182e-15 0)
(1.20303e-13 3.18586e-15 0)
(1.13889e-13 3.43014e-15 0)
(1.07027e-13 3.64661e-15 0)
(9.97722e-14 3.83332e-15 0)
(9.21875e-14 3.98663e-15 0)
(8.43376e-14 4.10527e-15 0)
(7.62932e-14 4.18546e-15 0)
(6.81321e-14 4.22447e-15 0)
(5.99376e-14 4.21838e-15 0)
(5.17991e-14 4.16483e-15 0)
(4.3813e-14 4.05993e-15 0)
(3.60814e-14 3.9007e-15 0)
(2.87151e-14 3.67941e-15 0)
(2.18388e-14 3.39417e-15 0)
(1.55846e-14 3.04177e-15 0)
(1.00938e-14 2.60404e-15 0)
(5.49569e-15 2.08658e-15 0)
(2.17114e-15 1.39957e-15 0)
(2.85052e-16 5.81148e-16 0)
(2.8144e-17 -1.6938e-15 0)
(2.01353e-15 -3.87889e-15 0)
(4.90251e-15 -5.91869e-15 0)
(9.01056e-15 -7.43632e-15 0)
(1.41259e-14 -8.71639e-15 0)
(1.99214e-14 -9.73187e-15 0)
(2.62896e-14 -1.05461e-14 0)
(3.31474e-14 -1.11781e-14 0)
(4.0346e-14 -1.1638e-14 0)
(4.77768e-14 -1.19396e-14 0)
(5.53521e-14 -1.20922e-14 0)
(6.29858e-14 -1.21097e-14 0)
(7.05853e-14 -1.20002e-14 0)
(7.80743e-14 -1.17709e-14 0)
(8.53854e-14 -1.1431e-14 0)
(9.24489e-14 -1.09907e-14 0)
(9.92035e-14 -1.04559e-14 0)
(1.05594e-13 -9.83542e-15 0)
(1.11568e-13 -9.13636e-15 0)
(1.17078e-13 -8.36773e-15 0)
(1.22083e-13 -7.5356e-15 0)
(1.26544e-13 -6.64927e-15 0)
(1.3043e-13 -5.71745e-15 0)
(1.33714e-13 -4.75229e-15 0)
(1.3639e-13 -3.79912e-15 0)
(1.38432e-13 -2.81588e-15 0)
(1.39822e-13 -1.74421e-15 0)
(1.40519e-13 -5.92671e-16 0)
(1.40524e-13 5.77741e-16 0)
(1.39837e-13 1.7305e-15 0)
(1.38456e-13 2.80331e-15 0)
(1.36422e-13 3.78683e-15 0)
(1.33755e-13 4.73903e-15 0)
(1.3048e-13 5.70443e-15 0)
(1.26603e-13 6.63684e-15 0)
(1.22149e-13 7.52394e-15 0)
(1.17152e-13 8.35744e-15 0)
(1.11648e-13 9.12664e-15 0)
(1.05679e-13 9.82681e-15 0)
(9.92946e-14 1.04484e-14 0)
(9.25448e-14 1.09845e-14 0)
(8.54837e-14 1.14261e-14 0)
(7.8175e-14 1.17674e-14 0)
(7.06864e-14 1.19969e-14 0)
(6.30876e-14 1.21086e-14 0)
(5.54574e-14 1.20924e-14 0)
(4.7879e-14 1.19395e-14 0)
(4.04419e-14 1.16377e-14 0)
(3.32441e-14 1.11776e-14 0)
(2.63933e-14 1.05472e-14 0)
(2.00009e-14 9.7263e-15 0)
(1.41923e-14 8.69056e-15 0)
(9.10672e-15 7.43607e-15 0)
(4.9165e-15 5.8856e-15 0)
(1.95974e-15 3.96331e-15 0)
(8.19893e-17 1.65638e-15 0)
(7.39726e-19 -2.59108e-15 0)
(1.59285e-15 -6.21866e-15 0)
(4.21503e-15 -9.40038e-15 0)
(8.06086e-15 -1.19214e-14 0)
(1.26574e-14 -1.39711e-14 0)
(1.80047e-14 -1.56543e-14 0)
(2.39149e-14 -1.69729e-14 0)
(3.02457e-14 -1.79944e-14 0)
(3.69054e-14 -1.87383e-14 0)
(4.37982e-14 -1.92231e-14 0)
(5.08203e-14 -1.94694e-14 0)
(5.78875e-14 -1.94954e-14 0)
(6.49293e-14 -1.93161e-14 0)
(7.18709e-14 -1.89451e-14 0)
(7.86418e-14 -1.83984e-14 0)
(8.51834e-14 -1.76873e-14 0)
(9.14394e-14 -1.68257e-14 0)
(9.73561e-14 -1.5826e-14 0)
(1.02886e-13 -1.47008e-14 0)
(1.07987e-13 -1.34617e-14 0)
(1.1262e-13 -1.21215e-14 0)
(1.16751e-13 -1.06915e-14 0)
(1.2035e-13 -9.18482e-15 0)
(1.23397e-13 -7.6182e-15 0)
(1.25866e-13 -6.01315e-15 0)
(1.27726e-13 -4.36197e-15 0)
(1.28971e-13 -2.64996e-15 0)
(1.29599e-13 -8.94249e-16 0)
(1.29603e-13 8.73346e-16 0)
(1.28983e-13 2.62928e-15 0)
(1.27747e-13 4.3428e-15 0)
(1.25895e-13 5.99444e-15 0)
(1.23433e-13 7.60098e-15 0)
(1.20393e-13 9.16782e-15 0)
(1.16802e-13 1.06762e-14 0)
(1.12678e-13 1.21063e-14 0)
(1.08051e-13 1.34486e-14 0)
(1.02956e-13 1.46881e-14 0)
(9.74315e-14 1.58149e-14 0)
(9.15188e-14 1.68157e-14 0)
(8.52662e-14 1.76787e-14 0)
(7.87281e-14 1.83908e-14 0)
(7.19589e-14 1.89399e-14 0)
(6.50196e-14 1.93118e-14 0)
(5.79793e-14 1.94933e-14 0)
(5.0909e-14 1.94688e-14 0)
(4.38862e-14 1.92224e-14 0)
(3.69967e-14 1.87379e-14 0)
(3.03334e-14 1.79966e-14 0)
(2.39914e-14 1.69703e-14 0)
(1.80788e-14 1.56404e-14 0)
(1.27424e-14 1.39731e-14 0)
(8.08811e-15 1.19047e-14 0)
(4.25038e-15 9.38228e-15 0)
(1.62375e-15 6.27805e-15 0)
(2.86164e-17 2.54551e-15 0)
(-5.90128e-18 -3.25899e-15 0)
(1.40742e-15 -8.27199e-15 0)
(3.70601e-15 -1.24508e-14 0)
(7.10552e-15 -1.59472e-14 0)
(1.1334e-14 -1.8757e-14 0)
(1.61929e-14 -2.10313e-14 0)
(2.15845e-14 -2.28453e-14 0)
(2.73921e-14 -2.4239e-14 0)
(3.35139e-14 -2.52447e-14 0)
(3.98432e-14 -2.59009e-14 0)
(4.62977e-14 -2.6238e-14 0)
(5.28043e-14 -2.62722e-14 0)
(5.92833e-14 -2.6028e-14 0)
(6.56662e-14 -2.55282e-14 0)
(7.18964e-14 -2.47893e-14 0)
(7.79152e-14 -2.38289e-14 0)
(8.36682e-14 -2.26669e-14 0)
(8.91093e-14 -2.13185e-14 0)
(9.41954e-14 -1.98015e-14 0)
(9.88858e-14 -1.81315e-14 0)
(1.03145e-13 -1.63261e-14 0)
(1.06943e-13 -1.44009e-14 0)
(1.10253e-13 -1.23739e-14 0)
(1.1305e-13 -1.02616e-14 0)
(1.15311e-13 -8.08537e-15 0)
(1.17008e-13 -5.84514e-15 0)
(1.18137e-13 -3.54175e-15 0)
(1.18703e-13 -1.19325e-15 0)
(1.18707e-13 1.16694e-15 0)
(1.18148e-13 3.51625e-15 0)
(1.17025e-13 5.82042e-15 0)
(1.15333e-13 8.06165e-15 0)
(1.1308e-13 1.02385e-14 0)
(1.10289e-13 1.2352e-14 0)
(1.06985e-13 1.43803e-14 0)
(1.03192e-13 1.63073e-14 0)
(9.89378e-14 1.81133e-14 0)
(9.42521e-14 1.97858e-14 0)
(8.917e-14 2.13042e-14 0)
(8.37328e-14 2.26543e-14 0)
(7.79831e-14 2.38186e-14 0)
(7.19669e-14 2.47811e-14 0)
(6.57384e-14 2.55215e-14 0)
(5.93555e-14 2.60253e-14 0)
(5.28781e-14 2.627e-14 0)
(4.63735e-14 2.62371e-14 0)
(3.9916e-14 2.59047e-14 0)
(3.3585e-14 2.52476e-14 0)
(2.74608e-14 2.42379e-14 0)
(2.16486e-14 2.28491e-14 0)
(1.62561e-14 2.10361e-14 0)
(1.13739e-14 1.87502e-14 0)
(7.1471e-15 1.59301e-14 0)
(3.73508e-15 1.249e-14 0)
(1.39823e-15 8.27085e-15 0)
(2.19314e-17 3.26115e-15 0)
(2.40276e-17 -3.8827e-15 0)
(1.19384e-15 -9.97914e-15 0)
(3.25522e-15 -1.52418e-14 0)
(6.29705e-15 -1.95269e-14 0)
(1.00679e-14 -2.30658e-14 0)
(1.4445e-14 -2.59281e-14 0)
(1.93257e-14 -2.81976e-14 0)
(2.45954e-14 -2.99355e-14 0)
(3.01576e-14 -3.11957e-14 0)
(3.59184e-14 -3.20193e-14 0)
(4.17992e-14 -3.24365e-14 0)
(4.77269e-14 -3.2481e-14 0)
(5.36312e-14 -3.21821e-14 0)
(5.94526e-14 -3.15626e-14 0)
(6.51335e-14 -3.06462e-14 0)
(7.06198e-14 -2.94589e-14 0)
(7.58653e-14 -2.80198e-14 0)
(8.08259e-14 -2.63514e-14 0)
(8.5461e-14 -2.4474e-14 0)
(8.97354e-14 -2.24096e-14 0)
(9.3617e-14 -2.01766e-14 0)
(9.70767e-14 -1.77969e-14 0)
(1.0009e-13 -1.529e-14 0)
(1.02633e-13 -1.26778e-14 0)
(1.04686e-13 -9.97734e-15 0)
(1.06231e-13 -7.20146e-15 0)
(1.0726e-13 -4.35733e-15 0)
(1.07776e-13 -1.46775e-15 0)
(1.07778e-13 1.43783e-15 0)
(1.07267e-13 4.32757e-15 0)
(1.06243e-13 7.17203e-15 0)
(1.04704e-13 9.94923e-15 0)
(1.02656e-13 1.26505e-14 0)
(1.00117e-13 1.5264e-14 0)
(9.71081e-14 1.77717e-14 0)
(9.36525e-14 2.01533e-14 0)
(8.97748e-14 2.23884e-14 0)
(8.55043e-14 2.44548e-14 0)
(8.0872e-14 2.63344e-14 0)
(7.59142e-14 2.80054e-14 0)
(7.0671e-14 2.94469e-14 0)
(6.51863e-14 3.0637e-14 0)
(5.95081e-14 3.1556e-14 0)
(5.36876e-14 3.21781e-14 0)
(4.77823e-14 3.2481e-14 0)
(4.18562e-14 3.24382e-14 0)
(3.59735e-14 3.20221e-14 0)
(3.02089e-14 3.12014e-14 0)
(2.46508e-14 2.9943e-14 0)
(1.93769e-14 2.82036e-14 0)
(1.44783e-14 2.59327e-14 0)
(1.00991e-14 2.30759e-14 0)
(6.33258e-15 1.95488e-14 0)
(3.25673e-15 1.52405e-14 0)
(1.20405e-15 1.00259e-14 0)
(1.38716e-17 3.88041e-15 0)
(2.73928e-18 -4.42551e-15 0)
(1.04656e-15 -1.15236e-14 0)
(2.84045e-15 -1.76563e-14 0)
(5.52911e-15 -2.27416e-14 0)
(8.86497e-15 -2.69307e-14 0)
(1.2769e-14 -3.03243e-14 0)
(1.71313e-14 -3.30208e-14 0)
(2.18527e-14 -3.5087e-14 0)
(2.68455e-14 -3.65834e-14 0)
(3.2025e-14 -3.75614e-14 0)
(3.7318e-14 -3.80598e-14 0)
(4.26567e-14 -3.81174e-14 0)
(4.79777e-14 -3.77672e-14 0)
(5.32246e-14 -3.70398e-14 0)
(5.83446e-14 -3.59654e-14 0)
(6.32906e-14 -3.457e-14 0)
(6.80193e-14 -3.28797e-14 0)
(7.24905e-14 -3.09206e-14 0)
(7.66682e-14 -2.87167e-14 0)
(8.05201e-14 -2.62919e-14 0)
(8.40174e-14 -2.36707e-14 0)
(8.71334e-14 -2.08765e-14 0)
(8.98455e-14 -1.79325e-14 0)
(9.21341e-14 -1.48618e-14 0)
(9.39804e-14 -1.16856e-14 0)
(9.53707e-14 -8.42225e-15 0)
(9.62992e-14 -5.08981e-15 0)
(9.67644e-14 -1.71274e-15 0)
(9.67661e-14 1.67945e-15 0)
(9.63043e-14 5.05733e-15 0)
(9.53793e-14 8.39087e-15 0)
(9.39922e-14 1.1655e-14 0)
(9.21495e-14 1.48322e-14 0)
(8.98642e-14 1.79045e-14 0)
(8.7155e-14 2.08502e-14 0)
(8.40418e-14 2.36461e-14 0)
(8.05471e-14 2.62696e-14 0)
(7.66974e-14 2.86963e-14 0)
(7.2522e-14 3.09026e-14 0)
(6.80529e-14 3.28644e-14 0)
(6.3326e-14 3.45573e-14 0)
(5.83814e-14 3.59558e-14 0)
(5.32621e-14 3.70336e-14 0)
(4.80161e-14 3.77632e-14 0)
(4.26958e-14 3.81166e-14 0)
(3.73568e-14 3.80623e-14 0)
(3.20629e-14 3.75661e-14 0)
(2.6884e-14 3.65916e-14 0)
(2.18862e-14 3.5096e-14 0)
(1.71589e-14 3.30291e-14 0)
(1.28043e-14 3.03369e-14 0)
(8.89045e-15 2.6944e-14 0)
(5.52576e-15 2.27585e-14 0)
(2.8573e-15 1.76806e-14 0)
(1.05936e-15 1.15658e-14 0)
(1.06777e-17 4.41968e-15 0)
(2.65152e-18 -4.8819e-15 0)
(9.08993e-16 -1.28719e-14 0)
(2.46272e-15 -1.97784e-14 0)
(4.80043e-15 -2.55613e-14 0)
(7.72502e-15 -3.03326e-14 0)
(1.11488e-14 -3.42142e-14 0)
(1.49893e-14 -3.73014e-14 0)
(1.91603e-14 -3.96694e-14 0)
(2.35763e-14 -4.13864e-14 0)
(2.81641e-14 -4.25089e-14 0)
(3.28589e-14 -4.30831e-14 0)
(3.75973e-14 -4.31543e-14 0)
(4.23219e-14 -4.27614e-14 0)
(4.6982e-14 -4.19401e-14 0)
(5.15313e-14 -4.07233e-14 0)
(5.59265e-14 -3.91423e-14 0)
(6.01279e-14 -3.72276e-14 0)
(6.41005e-14 -3.50078e-14 0)
(6.78125e-14 -3.25109e-14 0)
(7.12346e-14 -2.9764e-14 0)
(7.43404e-14 -2.67948e-14 0)
(7.71074e-14 -2.36292e-14 0)
(7.95151e-14 -2.02935e-14 0)
(8.15456e-14 -1.68132e-14 0)
(8.31838e-14 -1.32136e-14 0)
(8.44186e-14 -9.51677e-15 0)
(8.52436e-14 -5.74736e-15 0)
(8.5657e-14 -1.93238e-15 0)
(8.56582e-14 1.89818e-15 0)
(8.5247e-14 5.71347e-15 0)
(8.44238e-14 9.48355e-15 0)
(8.3191e-14 1.31814e-14 0)
(8.15547e-14 1.67825e-14 0)
(7.95259e-14 2.02639e-14 0)
(7.71198e-14 2.36014e-14 0)
(7.43544e-14 2.67687e-14 0)
(7.12498e-14 2.97401e-14 0)
(6.78292e-14 3.24895e-14 0)
(6.41186e-14 3.49892e-14 0)
(6.01471e-14 3.7212e-14 0)
(5.59466e-14 3.91298e-14 0)
(5.15526e-14 4.07139e-14 0)
(4.70044e-14 4.19339e-14 0)
(4.23445e-14 4.27591e-14 0)
(3.76199e-14 4.31554e-14 0)
(3.28827e-14 4.30871e-14 0)
(2.81873e-14 4.25156e-14 0)
(2.3596e-14 4.13967e-14 0)
(1.91817e-14 3.96814e-14 0)
(1.5012e-14 3.73168e-14 0)
(1.11574e-14 3.42318e-14 0)
(7.73257e-15 3.03493e-14 0)
(4.81974e-15 2.55832e-14 0)
(2.4619e-15 1.98111e-14 0)
(8.98837e-16 1.28974e-14 0)
(1.02383e-17 4.88827e-15 0)
(7.45999e-18 -5.28199e-15 0)
(7.72627e-16 -1.40179e-14 0)
(2.10381e-15 -2.16158e-14 0)
(4.10739e-15 -2.79977e-14 0)
(6.62215e-15 -3.32908e-14 0)
(9.57645e-15 -3.76075e-14 0)
(1.28993e-14 -4.10428e-14 0)
(1.65133e-14 -4.36832e-14 0)
(2.03466e-14 -4.56005e-14 0)
(2.43366e-14 -4.68539e-14 0)
(2.84235e-14 -4.74997e-14 0)
(3.25499e-14 -4.75868e-14 0)
(3.66671e-14 -4.71583e-14 0)
(4.07305e-14 -4.62547e-14 0)
(4.46978e-14 -4.49133e-14 0)
(4.85306e-14 -4.31697e-14 0)
(5.21952e-14 -4.10571e-14 0)
(5.56604e-14 -3.86073e-14 0)
(5.88977e-14 -3.58518e-14 0)
(6.18817e-14 -3.28211e-14 0)
(6.45898e-14 -2.95446e-14 0)
(6.7002e-14 -2.60514e-14 0)
(6.91003e-14 -2.23708e-14 0)
(7.08695e-14 -1.85306e-14 0)
(7.22972e-14 -1.45584e-14 0)
(7.33741e-14 -1.04814e-14 0)
(7.40942e-14 -6.32739e-15 0)
(7.4455e-14 -2.1257e-15 0)
(7.44552e-14 2.09207e-15 0)
(7.40951e-14 6.2938e-15 0)
(7.33759e-14 1.04484e-14 0)
(7.22997e-14 1.4526e-14 0)
(7.08724e-14 1.84993e-14 0)
(6.91039e-14 2.23408e-14 0)
(6.70061e-14 2.60231e-14 0)
(6.45945e-14 2.95183e-14 0)
(6.1887e-14 3.27971e-14 0)
(5.89037e-14 3.58304e-14 0)
(5.56668e-14 3.85887e-14 0)
(5.22023e-14 4.10414e-14 0)
(4.85382e-14 4.31574e-14 0)
(4.47056e-14 4.49044e-14 0)
(4.07392e-14 4.62492e-14 0)
(3.66765e-14 4.71562e-14 0)
(3.25589e-14 4.75884e-14 0)
(2.84321e-14 4.7505e-14 0)
(2.43463e-14 4.6862e-14 0)
(2.03574e-14 4.56115e-14 0)
(1.6521e-14 4.36987e-14 0)
(1.29042e-14 4.10595e-14 0)
(9.58764e-15 3.76256e-14 0)
(6.6293e-15 3.33159e-14 0)
(4.10008e-15 2.80224e-14 0)
(2.107e-15 2.16416e-14 0)
(7.78288e-16 1.4051e-14 0)
(6.34497e-18 5.28809e-15 0)
(3.82589e-18 -5.62234e-15 0)
(6.44967e-16 -1.49922e-14 0)
(1.75903e-15 -2.31738e-14 0)
(3.43991e-15 -3.00734e-14 0)
(5.55454e-15 -3.58141e-14 0)
(8.04451e-15 -4.05063e-14 0)
(1.08503e-14 -4.42493e-14 0)
(1.39071e-14 -4.71296e-14 0)
(1.71561e-14 -4.92221e-14 0)
(2.0541e-14 -5.05932e-14 0)
(2.40102e-14 -5.13044e-14 0)
(2.75171e-14 -5.14071e-14 0)
(3.10182e-14 -5.09493e-14 0)
(3.44739e-14 -4.99761e-14 0)
(3.78489e-14 -4.85285e-14 0)
(4.11102e-14 -4.66447e-14 0)
(4.42287e-14 -4.43613e-14 0)
(4.71773e-14 -4.17134e-14 0)
(4.99317e-14 -3.8735e-14 0)
(5.24706e-14 -3.54585e-14 0)
(5.47747e-14 -3.19167e-14 0)
(5.68262e-14 -2.81408e-14 0)
(5.86106e-14 -2.41621e-14 0)
(6.01154e-14 -2.00111e-14 0)
(6.13297e-14 -1.57181e-14 0)
(6.22458e-14 -1.13135e-14 0)
(6.28588e-14 -6.82766e-15 0)
(6.31658e-14 -2.29241e-15 0)
(6.31655e-14 2.2595e-15 0)
(6.2858e-14 6.79534e-15 0)
(6.22445e-14 1.12819e-14 0)
(6.1328e-14 1.56873e-14 0)
(6.01133e-14 1.99814e-14 0)
(5.86081e-14 2.41338e-14 0)
(5.68233e-14 2.81142e-14 0)
(5.47714e-14 3.1892e-14 0)
(5.24672e-14 3.54361e-14 0)
(4.9928e-14 3.87147e-14 0)
(4.71734e-14 4.16959e-14 0)
(4.42248e-14 4.43466e-14 0)
(4.11065e-14 4.6633e-14 0)
(3.78453e-14 4.85201e-14 0)
(3.44706e-14 4.99711e-14 0)
(3.10151e-14 5.09474e-14 0)
(2.75147e-14 5.14086e-14 0)
(2.40086e-14 5.13097e-14 0)
(2.05392e-14 5.06022e-14 0)
(1.71541e-14 4.92333e-14 0)
(1.39073e-14 4.71438e-14 0)
(1.08516e-14 4.42676e-14 0)
(8.04056e-15 4.05273e-14 0)
(5.55117e-15 3.58341e-14 0)
(3.44624e-15 3.0098e-14 0)
(1.75733e-15 2.32025e-14 0)
(6.39922e-16 1.50177e-14 0)
(6.41148e-18 5.62664e-15 0)
(2.90998e-18 -5.9004e-15 0)
(5.22506e-16 -1.57954e-14 0)
(1.42596e-15 -2.44591e-14 0)
(2.79283e-15 -3.17891e-14 0)
(4.51439e-15 -3.79058e-14 0)
(6.54411e-15 -4.29148e-14 0)
(8.83577e-15 -4.69175e-14 0)
(1.13372e-14 -5.00006e-14 0)
(1.39987e-14 -5.2243e-14 0)
(1.67737e-14 -5.37169e-14 0)
(1.96206e-14 -5.44849e-14 0)
(2.25002e-14 -5.46016e-14 0)
(2.53762e-14 -5.4121e-14 0)
(2.82159e-14 -5.30912e-14 0)
(3.09901e-14 -5.15551e-14 0)
(3.36713e-14 -4.95542e-14 0)
(3.6235e-14 -4.7128e-14 0)
(3.86591e-14 -4.43142e-14 0)
(4.09239e-14 -4.11487e-14 0)
(4.30111e-14 -3.76667e-14 0)
(4.49046e-14 -3.39024e-14 0)
(4.6591e-14 -2.98897e-14 0)
(4.80577e-14 -2.56612e-14 0)
(4.92941e-14 -2.12503e-14 0)
(5.0292e-14 -1.66892e-14 0)
(5.1045e-14 -1.20103e-14 0)
(5.15488e-14 -7.24647e-15 0)
(5.18009e-14 -2.43132e-15 0)
(5.18003e-14 2.40107e-15 0)
(5.15468e-14 7.21641e-15 0)
(5.10415e-14 1.19806e-14 0)
(5.02869e-14 1.66604e-14 0)
(4.92876e-14 2.12226e-14 0)
(4.80498e-14 2.56348e-14 0)
(4.6582e-14 2.98647e-14 0)
(4.48946e-14 3.38792e-14 0)
(4.29999e-14 3.76455e-14 0)
(4.09119e-14 4.11299e-14 0)
(3.86466e-14 4.42979e-14 0)
(3.6222e-14 4.71146e-14 0)
(3.3658e-14 4.95436e-14 0)
(3.09766e-14 5.15475e-14 0)
(2.82026e-14 5.30868e-14 0)
(2.53633e-14 5.41199e-14 0)
(2.2488e-14 5.4604e-14 0)
(1.9609e-14 5.449e-14 0)
(1.67626e-14 5.37255e-14 0)
(1.39898e-14 5.22554e-14 0)
(1.13293e-14 5.00153e-14 0)
(8.82742e-15 4.69338e-14 0)
(6.54027e-15 4.29345e-14 0)
(4.51188e-15 3.79299e-14 0)
(2.78479e-15 3.18123e-14 0)
(1.42484e-15 2.44806e-14 0)
(5.24724e-16 1.58217e-14 0)
(3.9917e-18 5.90404e-15 0)
(2.50705e-18 -6.12104e-15 0)
(4.04006e-16 -1.64339e-14 0)
(1.10289e-15 -2.54807e-14 0)
(2.1603e-15 -3.31559e-14 0)
(3.49445e-15 -3.95734e-14 0)
(5.07033e-15 -4.48378e-14 0)
(6.85099e-15 -4.90494e-14 0)
(8.79752e-15 -5.22977e-14 0)
(1.08696e-14 -5.46636e-14 0)
(1.30309e-14 -5.62206e-14 0)
(1.5252e-14 -5.70365e-14 0)
(1.7498e-14 -5.71669e-14 0)
(1.97419e-14 -5.66676e-14 0)
(2.19586e-14 -5.55932e-14 0)
(2.41251e-14 -5.39864e-14 0)
(2.62189e-14 -5.18919e-14 0)
(2.8221e-14 -4.9351e-14 0)
(3.0114e-14 -4.64037e-14 0)
(3.18824e-14 -4.30877e-14 0)
(3.35122e-14 -3.94404e-14 0)
(3.49908e-14 -3.54973e-14 0)
(3.63073e-14 -3.12941e-14 0)
(3.74521e-14 -2.68653e-14 0)
(3.84172e-14 -2.22456e-14 0)
(3.91962e-14 -1.74689e-14 0)
(3.97842e-14 -1.25698e-14 0)
(4.01774e-14 -7.58269e-15 0)
(4.03739e-14 -2.54257e-15 0)
(4.03726e-14 2.5155e-15 0)
(4.01737e-14 7.55581e-15 0)
(3.97783e-14 1.25433e-14 0)
(3.91883e-14 1.7443e-14 0)
(3.84072e-14 2.22204e-14 0)
(3.74399e-14 2.68413e-14 0)
(3.62931e-14 3.12714e-14 0)
(3.49749e-14 3.54765e-14 0)
(3.34948e-14 3.94213e-14 0)
(3.18637e-14 4.30708e-14 0)
(3.00942e-14 4.6389e-14 0)
(2.82003e-14 4.93388e-14 0)
(2.61977e-14 5.18822e-14 0)
(2.41036e-14 5.39796e-14 0)
(2.19373e-14 5.55892e-14 0)
(1.9721e-14 5.66667e-14 0)
(1.74772e-14 5.71689e-14 0)
(1.52329e-14 5.70415e-14 0)
(1.30137e-14 5.62287e-14 0)
(1.08526e-14 5.46744e-14 0)
(8.78274e-15 5.2311e-14 0)
(6.84089e-15 4.90662e-14 0)
(5.06086e-15 4.48553e-14 0)
(3.48455e-15 3.95905e-14 0)
(2.15752e-15 3.31771e-14 0)
(1.10156e-15 2.55041e-14 0)
(4.00421e-16 1.6452e-14 0)
(3.8517e-18 6.12503e-15 0)
(1.25998e-18 -6.28576e-15 0)
(2.88128e-16 -1.69106e-14 0)
(7.85718e-16 -2.62444e-14 0)
(1.53943e-15 -3.41783e-14 0)
(2.49171e-15 -4.08211e-14 0)
(3.61654e-15 -4.62782e-14 0)
(4.8883e-15 -5.06486e-14 0)
(6.2797e-15 -5.40228e-14 0)
(7.76231e-15 -5.64831e-14 0)
(9.30851e-15 -5.81043e-14 0)
(1.09012e-14 -5.89568e-14 0)
(1.25059e-14 -5.90975e-14 0)
(1.41165e-14 -5.85859e-14 0)
(1.57036e-14 -5.74774e-14 0)
(1.72566e-14 -5.58175e-14 0)
(1.87571e-14 -5.36519e-14 0)
(2.01918e-14 -5.10247e-14 0)
(2.15484e-14 -4.79768e-14 0)
(2.28156e-14 -4.45478e-14 0)
(2.39834e-14 -4.07756e-14 0)
(2.50428e-14 -3.6698e-14 0)
(2.59859e-14 -3.23511e-14 0)
(2.6806e-14 -2.77714e-14 0)
(2.74974e-14 -2.29942e-14 0)
(2.80553e-14 -1.80555e-14 0)
(2.84761e-14 -1.29906e-14 0)
(2.87573e-14 -7.83545e-15 0)
(2.88976e-14 -2.62572e-15 0)
(2.88962e-14 2.60216e-15 0)
(2.8753e-14 7.81203e-15 0)
(2.84685e-14 1.29678e-14 0)
(2.80447e-14 1.80332e-14 0)
(2.74841e-14 2.29727e-14 0)
(2.67902e-14 2.77508e-14 0)
(2.59677e-14 3.23318e-14 0)
(2.50223e-14 3.668e-14 0)
(2.39608e-14 4.07593e-14 0)
(2.27913e-14 4.45331e-14 0)
(2.15226e-14 4.79642e-14 0)
(2.01648e-14 5.10141e-14 0)
(1.87294e-14 5.36436e-14 0)
(1.72285e-14 5.58115e-14 0)
(1.56755e-14 5.74738e-14 0)
(1.40889e-14 5.85848e-14 0)
(1.24791e-14 5.9099e-14 0)
(1.08759e-14 5.89611e-14 0)
(9.28452e-15 5.81106e-14 0)
(7.74123e-15 5.6492e-14 0)
(6.26233e-15 5.40346e-14 0)
(4.87103e-15 5.06611e-14 0)
(3.60238e-15 4.6293e-14 0)
(2.48522e-15 4.08392e-14 0)
(1.53318e-15 3.41938e-14 0)
(7.79931e-16 2.62593e-14 0)
(2.87025e-16 1.69283e-14 0)
(1.36395e-18 6.28817e-15 0)
(3.6581e-19 -6.39523e-15 0)
(1.73955e-16 -1.72273e-14 0)
(4.73385e-16 -2.67528e-14 0)
(9.26694e-16 -3.48581e-14 0)
(1.49966e-15 -4.16524e-14 0)
(2.17583e-15 -4.72385e-14 0)
(2.94038e-15 -5.17157e-14 0)
(3.77763e-15 -5.51746e-14 0)
(4.66903e-15 -5.76981e-14 0)
(5.59829e-15 -5.93619e-14 0)
(6.57491e-15 -6.02308e-14 0)
(7.50985e-15 -6.03741e-14 0)
(8.49942e-15 -5.98667e-14 0)
(9.4522e-15 -5.87366e-14 0)
(1.03864e-14 -5.70411e-14 0)
(1.1289e-14 -5.48282e-14 0)
(1.21518e-14 -5.21433e-14 0)
(1.2968e-14 -4.90282e-14 0)
(1.37305e-14 -4.55235e-14 0)
(1.44329e-14 -4.1668e-14 0)
(1.50702e-14 -3.75002e-14 0)
(1.56375e-14 -3.30573e-14 0)
(1.61305e-14 -2.83765e-14 0)
(1.65459e-14 -2.34943e-14 0)
(1.6881e-14 -1.84472e-14 0)
(1.71337e-14 -1.32714e-14 0)
(1.73024e-14 -8.00363e-15 0)
(1.7386e-14 -2.68042e-15 0)
(1.7384e-14 2.66119e-15 0)
(1.72969e-14 7.98444e-15 0)
(1.71249e-14 1.32524e-14 0)
(1.68689e-14 1.84287e-14 0)
(1.65305e-14 2.34765e-14 0)
(1.61119e-14 2.83595e-14 0)
(1.56158e-14 3.30414e-14 0)
(1.5046e-14 3.74852e-14 0)
(1.44064e-14 4.16544e-14 0)
(1.37018e-14 4.55113e-14 0)
(1.29376e-14 4.90176e-14 0)
(1.21201e-14 5.21344e-14 0)
(1.12563e-14 5.48213e-14 0)
(1.03532e-14 5.70359e-14 0)
(9.41903e-15 5.87336e-14 0)
(8.46675e-15 5.98656e-14 0)
(7.47787e-15 6.0375e-14 0)
(6.54475e-15 6.02339e-14 0)
(5.57069e-15 5.9367e-14 0)
(4.64382e-15 5.7705e-14 0)
(3.75408e-15 5.51829e-14 0)
(2.9229e-15 5.17264e-14 0)
(2.16371e-15 4.72507e-14 0)
(1.48455e-15 4.1663e-14 0)
(9.17089e-16 3.48717e-14 0)
(4.72977e-16 2.67681e-14 0)
(1.71234e-16 1.72386e-14 0)
(1.9406e-18 6.39751e-15 0)
(1.0249e-19 -6.45024e-15 0)
(6.03755e-17 -1.73872e-14 0)
(1.63596e-16 -2.70084e-14 0)
(3.18525e-16 -3.52001e-14 0)
(5.13807e-16 -4.20702e-14 0)
(7.43183e-16 -4.77207e-14 0)
(1.00136e-15 -5.22506e-14 0)
(1.28446e-15 -5.5751e-14 0)
(1.58406e-15 -5.83065e-14 0)
(1.88887e-15 -5.99935e-14 0)
(2.21968e-15 -6.08817e-14 0)
(2.54113e-15 -6.1043e-14 0)
(2.89842e-15 -6.05139e-14 0)
(3.20115e-15 -5.9366e-14 0)
(3.51264e-15 -5.76517e-14 0)
(3.81526e-15 -5.54168e-14 0)
(4.10423e-15 -5.27036e-14 0)
(4.37769e-15 -4.9555e-14 0)
(4.63318e-15 -4.60122e-14 0)
(4.86853e-15 -4.2115e-14 0)
(5.08178e-15 -3.79017e-14 0)
(5.27134e-15 -3.34109e-14 0)
(5.43604e-15 -2.86792e-14 0)
(5.57459e-15 -2.37442e-14 0)
(5.68611e-15 -1.86425e-14 0)
(5.76978e-15 -1.34111e-14 0)
(5.82505e-15 -8.08677e-15 0)
(5.85182e-15 -2.70685e-15 0)
(5.84984e-15 2.69191e-15 0)
(5.81908e-15 8.07218e-15 0)
(5.75984e-15 1.33967e-14 0)
(5.67243e-15 1.86284e-14 0)
(5.55733e-15 2.37305e-14 0)
(5.41549e-15 2.8666e-14 0)
(5.24759e-15 3.33983e-14 0)
(5.055e-15 3.78903e-14 0)
(4.83915e-15 4.21044e-14 0)
(4.60145e-15 4.60027e-14 0)
(4.34407e-15 4.95467e-14 0)
(4.06911e-15 5.26965e-14 0)
(3.77899e-15 5.54111e-14 0)
(3.47587e-15 5.76475e-14 0)
(3.16442e-15 5.93632e-14 0)
(2.86216e-15 6.05126e-14 0)
(2.50597e-15 6.10432e-14 0)
(2.18644e-15 6.08831e-14 0)
(1.85737e-15 5.99966e-14 0)
(1.55578e-15 5.8311e-14 0)
(1.26151e-15 5.57567e-14 0)
(9.7992e-16 5.22567e-14 0)
(7.22523e-16 4.77281e-14 0)
(5.04091e-16 4.20798e-14 0)
(3.13801e-16 3.52087e-14 0)
(1.53997e-16 2.70159e-14 0)
(5.62753e-17 1.73983e-14 0)
(-3.8664e-19 6.45117e-15 0)
(-9.55375e-19 -6.45139e-15 0)
(-5.18081e-17 -1.73904e-14 0)
(-1.45127e-16 -2.70127e-14 0)
(-2.88518e-16 -3.52052e-14 0)
(-4.69874e-16 -4.20751e-14 0)
(-6.86567e-16 -4.77257e-14 0)
(-9.33433e-16 -5.22555e-14 0)
(-1.20356e-15 -5.57556e-14 0)
(-1.49202e-15 -5.8311e-14 0)
(-1.78715e-15 -5.99978e-14 0)
(-2.10743e-15 -6.08856e-14 0)
(-2.41998e-15 -6.10466e-14 0)
(-2.76885e-15 -6.05172e-14 0)
(-3.06383e-15 -5.93691e-14 0)
(-3.36849e-15 -5.76543e-14 0)
(-3.66515e-15 -5.5419e-14 0)
(-3.94893e-15 -5.27054e-14 0)
(-4.218e-15 -4.95564e-14 0)
(-4.46995e-15 -4.60132e-14 0)
(-4.70252e-15 -4.21155e-14 0)
(-4.91391e-15 -3.7902e-14 0)
(-5.10229e-15 -3.34104e-14 0)
(-5.26643e-15 -2.86785e-14 0)
(-5.40531e-15 -2.37431e-14 0)
(-5.51788e-15 -1.86411e-14 0)
(-5.60339e-15 -1.34095e-14 0)
(-5.66143e-15 -8.085e-15 0)
(-5.69165e-15 -2.70457e-15 0)
(-5.69369e-15 2.69436e-15 0)
(-5.66769e-15 8.07475e-15 0)
(-5.61388e-15 1.33995e-14 0)
(-5.53232e-15 1.86315e-14 0)
(-5.42355e-15 2.37338e-14 0)
(-5.28834e-15 2.86697e-14 0)
(-5.12742e-15 3.3402e-14 0)
(-4.94213e-15 3.78941e-14 0)
(-4.73373e-15 4.21081e-14 0)
(-4.50357e-15 4.60066e-14 0)
(-4.25367e-15 4.95504e-14 0)
(-3.98616e-15 5.27002e-14 0)
(-3.7035e-15 5.54145e-14 0)
(-3.40756e-15 5.76509e-14 0)
(-3.10283e-15 5.93663e-14 0)
(-2.80727e-15 6.05154e-14 0)
(-2.45735e-15 6.10457e-14 0)
(-2.14295e-15 6.08856e-14 0)
(-1.81936e-15 5.99985e-14 0)
(-1.5219e-15 5.83123e-14 0)
(-1.23212e-15 5.57578e-14 0)
(-9.54938e-16 5.22588e-14 0)
(-6.99941e-16 4.7729e-14 0)
(-4.87651e-16 4.20778e-14 0)
(-3.03299e-16 3.52102e-14 0)
(-1.4541e-16 2.70192e-14 0)
(-5.41031e-17 1.7396e-14 0)
(-2.00105e-19 6.45172e-15 0)
(-2.30205e-18 -6.39816e-15 0)
(-1.64778e-16 -1.72378e-14 0)
(-4.55581e-16 -2.67654e-14 0)
(-8.9713e-16 -3.48721e-14 0)
(-1.45644e-15 -4.16672e-14 0)
(-2.1207e-15 -4.72533e-14 0)
(-2.87439e-15 -5.17299e-14 0)
(-3.69938e-15 -5.51882e-14 0)
(-4.5801e-15 -5.77111e-14 0)
(-5.4996e-15 -5.93742e-14 0)
(-6.46631e-15 -6.02423e-14 0)
(-7.39228e-15 -6.03845e-14 0)
(-8.37433e-15 -5.98761e-14 0)
(-9.31969e-15 -5.8745e-14 0)
(-1.02472e-14 -5.70483e-14 0)
(-1.11442e-14 -5.48344e-14 0)
(-1.2002e-14 -5.21482e-14 0)
(-1.28139e-14 -4.90321e-14 0)
(-1.35729e-14 -4.55261e-14 0)
(-1.42728e-14 -4.16695e-14 0)
(-1.49079e-14 -3.75005e-14 0)
(-1.54739e-14 -3.30565e-14 0)
(-1.59667e-14 -2.83747e-14 0)
(-1.63825e-14 -2.34914e-14 0)
(-1.67187e-14 -1.84432e-14 0)
(-1.69732e-14 -1.32665e-14 0)
(-1.71443e-14 -7.99793e-15 0)
(-1.72312e-14 -2.674e-15 0)
(-1.72334e-14 2.66846e-15 0)
(-1.71508e-14 7.99252e-15 0)
(-1.69837e-14 1.32613e-14 0)
(-1.67333e-14 1.84382e-14 0)
(-1.6401e-14 2.34864e-14 0)
(-1.59889e-14 2.83699e-14 0)
(-1.54998e-14 3.3052e-14 0)
(-1.49369e-14 3.74961e-14 0)
(-1.43045e-14 4.16653e-14 0)
(-1.36072e-14 4.55222e-14 0)
(-1.28504e-14 4.90283e-14 0)
(-1.20401e-14 5.21449e-14 0)
(-1.11834e-14 5.48312e-14 0)
(-1.02872e-14 5.70455e-14 0)
(-9.35966e-15 5.87424e-14 0)
(-8.4137e-15 5.98738e-14 0)
(-7.43032e-15 6.03824e-14 0)
(-6.50261e-15 6.02404e-14 0)
(-5.53428e-15 5.93724e-14 0)
(-4.61123e-15 5.77101e-14 0)
(-3.72426e-15 5.51868e-14 0)
(-2.89845e-15 5.17282e-14 0)
(-2.14554e-15 4.72528e-14 0)
(-1.46766e-15 4.16679e-14 0)
(-9.01196e-16 3.48712e-14 0)
(-4.67991e-16 2.67663e-14 0)
(-1.7232e-16 1.72411e-14 0)
(-1.99787e-18 6.39761e-15 0)
(-2.36046e-18 -6.29063e-15 0)
(-2.79092e-16 -1.6927e-14 0)
(-7.67663e-16 -2.62652e-14 0)
(-1.51136e-15 -3.42003e-14 0)
(-2.45086e-15 -4.08447e-14 0)
(-3.56412e-15 -4.63018e-14 0)
(-4.82631e-15 -5.06718e-14 0)
(-6.20659e-15 -5.40452e-14 0)
(-7.67943e-15 -5.65039e-14 0)
(-9.21691e-15 -5.8124e-14 0)
(-1.08006e-14 -5.89755e-14 0)
(-1.23972e-14 -5.91144e-14 0)
(-1.40006e-14 -5.8601e-14 0)
(-1.55808e-14 -5.74909e-14 0)
(-1.71278e-14 -5.58292e-14 0)
(-1.8623e-14 -5.36619e-14 0)
(-2.00529e-14 -5.10327e-14 0)
(-2.14056e-14 -4.79832e-14 0)
(-2.26695e-14 -4.4552e-14 0)
(-2.38347e-14 -4.07783e-14 0)
(-2.48924e-14 -3.66984e-14 0)
(-2.58344e-14 -3.23502e-14 0)
(-2.66539e-14 -2.77683e-14 0)
(-2.73455e-14 -2.29898e-14 0)
(-2.79044e-14 -1.80492e-14 0)
(-2.8327e-14 -1.29831e-14 0)
(-2.86107e-14 -7.82591e-15 0)
(-2.87539e-14 -2.61519e-15 0)
(-2.87559e-14 2.61446e-15 0)
(-2.86168e-14 7.82518e-15 0)
(-2.83373e-14 1.29824e-14 0)
(-2.79189e-14 1.80483e-14 0)
(-2.73639e-14 2.29892e-14 0)
(-2.66759e-14 2.77674e-14 0)
(-2.58596e-14 3.23494e-14 0)
(-2.49208e-14 3.66975e-14 0)
(-2.38661e-14 4.07774e-14 0)
(-2.27034e-14 4.45507e-14 0)
(-2.14414e-14 4.79819e-14 0)
(-2.00904e-14 5.1031e-14 0)
(-1.86617e-14 5.36602e-14 0)
(-1.71672e-14 5.58268e-14 0)
(-1.56203e-14 5.74886e-14 0)
(-1.40396e-14 5.85981e-14 0)
(-1.24354e-14 5.91112e-14 0)
(-1.08371e-14 5.89719e-14 0)
(-9.24976e-15 5.81203e-14 0)
(-7.71035e-15 5.6499e-14 0)
(-6.2373e-15 5.40407e-14 0)
(-4.84862e-15 5.06678e-14 0)
(-3.57729e-15 4.6296e-14 0)
(-2.47183e-15 4.08386e-14 0)
(-1.52942e-15 3.41975e-14 0)
(-7.67913e-16 2.62634e-14 0)
(-2.82434e-16 1.6926e-14 0)
(-1.7673e-18 6.28947e-15 0)
(-4.21977e-18 -6.12764e-15 0)
(-3.95399e-16 -1.64574e-14 0)
(-1.08629e-15 -2.55088e-14 0)
(-2.13372e-15 -3.31864e-14 0)
(-3.45721e-15 -3.96045e-14 0)
(-5.02314e-15 -4.4869e-14 0)
(-6.79564e-15 -4.90803e-14 0)
(-8.73196e-15 -5.23277e-14 0)
(-1.07959e-14 -5.46924e-14 0)
(-1.29505e-14 -5.62473e-14 0)
(-1.51633e-14 -5.70616e-14 0)
(-1.7402e-14 -5.71898e-14 0)
(-1.96401e-14 -5.66885e-14 0)
(-2.18506e-14 -5.56114e-14 0)
(-2.40117e-14 -5.40027e-14 0)
(-2.61007e-14 -5.19052e-14 0)
(-2.80985e-14 -4.93625e-14 0)
(-2.99879e-14 -4.64121e-14 0)
(-3.17534e-14 -4.30942e-14 0)
(-3.33808e-14 -3.94437e-14 0)
(-3.48577e-14 -3.54988e-14 0)
(-3.61731e-14 -3.12923e-14 0)
(-3.73176e-14 -2.68617e-14 0)
(-3.8283e-14 -2.2239e-14 0)
(-3.90628e-14 -1.74608e-14 0)
(-3.96519e-14 -1.2559e-14 0)
(-4.00471e-14 -7.57058e-15 0)
(-4.02462e-14 -2.52776e-15 0)
(-4.02483e-14 2.53128e-15 0)
(-4.00531e-14 7.57409e-15 0)
(-3.96618e-14 1.25625e-14 0)
(-3.90763e-14 1.74644e-14 0)
(-3.83002e-14 2.22425e-14 0)
(-3.73383e-14 2.68652e-14 0)
(-3.61972e-14 3.12953e-14 0)
(-3.48848e-14 3.55014e-14 0)
(-3.34106e-14 3.94457e-14 0)
(-3.17856e-14 4.30957e-14 0)
(-3.00221e-14 4.64128e-14 0)
(-2.81343e-14 4.93625e-14 0)
(-2.61376e-14 5.19045e-14 0)
(-2.40493e-14 5.40012e-14 0)
(-2.18883e-14 5.56088e-14 0)
(-1.96776e-14 5.66852e-14 0)
(-1.74384e-14 5.71854e-14 0)
(-1.51978e-14 5.70563e-14 0)
(-1.29846e-14 5.62407e-14 0)
(-1.08263e-14 5.46856e-14 0)
(-8.75508e-15 5.23201e-14 0)
(-6.82089e-15 4.90699e-14 0)
(-5.05093e-15 4.48606e-14 0)
(-3.46757e-15 3.95975e-14 0)
(-2.13704e-15 3.31771e-14 0)
(-1.10214e-15 2.5501e-14 0)
(-4.04537e-16 1.64553e-14 0)
(-4.68931e-18 6.1252e-15 0)
(-4.32456e-18 -5.90818e-15 0)
(-5.14481e-16 -1.58253e-14 0)
(-1.41015e-15 -2.44926e-14 0)
(-2.76893e-15 -3.18257e-14 0)
(-4.4812e-15 -3.7943e-14 0)
(-6.50386e-15 -4.29519e-14 0)
(-8.78971e-15 -4.6953e-14 0)
(-1.12834e-14 -5.00353e-14 0)
(-1.39378e-14 -5.22767e-14 0)
(-1.67072e-14 -5.37482e-14 0)
(-1.95481e-14 -5.45138e-14 0)
(-2.24221e-14 -5.46285e-14 0)
(-2.52927e-14 -5.41452e-14 0)
(-2.81274e-14 -5.31126e-14 0)