/*--------------------------------*- C++ -*----------------------------------*\
| =========                 |                                                 |
| \\      /  F ield         | OpenFOAM: The Open Source CFD Toolbox           |
|  \\    /   O peration     | Version:  5.0                                   |
|   \\  /    A nd           | Web:      www.OpenFOAM.org                      |
|    \\/     M anipulation  |                                                 |
\*---------------------------------------------------------------------------*/
FoamFile
{
    version     2.0;
    format      ascii;
    class       surfaceScalarField;
    location    "459";
    object      phi;
}
// * * * * * * * * * * * * * * * * * * * * * * * * * * * * * * * * * * * * * //

dimensions      [0 3 -1 0 0 0 0];

internalField   nonuniform List<scalar> 
3052
(
1.8554e-25
-2.58404e-25
7.31899e-25
-5.47254e-25
1.53301e-24
-8.01882e-25
2.53466e-24
-1.00235e-24
3.70258e-24
-1.16858e-24
5.0107e-24
-1.30874e-24
6.42786e-24
-1.41775e-24
7.92927e-24
-1.50198e-24
9.49294e-24
-1.56421e-24
1.10972e-23
-1.60481e-24
1.2722e-23
-1.6253e-24
1.43491e-23
-1.62758e-24
1.59616e-23
-1.61288e-24
1.75432e-23
-1.58209e-24
1.90794e-23
-1.53651e-24
2.05563e-23
-1.47733e-24
2.19615e-23
-1.4055e-24
2.32833e-23
-1.32212e-24
2.45112e-23
-1.22826e-24
2.5636e-23
-1.12497e-24
2.6649e-23
-1.01326e-24
2.75429e-23
-8.94141e-25
2.83115e-23
-7.68736e-25
2.89465e-23
-6.35199e-25
2.94479e-23
-5.01532e-25
2.9815e-23
-3.67236e-25
3.0038e-23
-2.23041e-25
3.01123e-23
-7.43067e-26
3.004e-23
7.23846e-26
2.98191e-23
2.21079e-25
2.94538e-23
3.65412e-25
2.89543e-23
4.99774e-25
2.8321e-23
6.33483e-25
2.75541e-23
7.67116e-25
2.66618e-23
8.92588e-25
2.56504e-23
1.01175e-24
2.4527e-23
1.12368e-24
2.33004e-23
1.22701e-24
2.19797e-23
1.32106e-24
2.05756e-23
1.40459e-24
1.90994e-23
1.47655e-24
1.7564e-23
1.53585e-24
1.59829e-23
1.58164e-24
1.43708e-23
1.61254e-24
1.27438e-23
1.62755e-24
1.1119e-23
1.62538e-24
9.51479e-24
1.60477e-24
7.95109e-24
1.56432e-24
6.44908e-24
1.50267e-24
5.03199e-24
1.41775e-24
3.72518e-24
1.30753e-24
2.55651e-24
1.16943e-24
1.556e-24
1.00128e-24
7.60462e-25
7.96354e-25
2.27554e-25
5.3358e-25
2.27649e-25
1.70199e-25
-4.29488e-25
6.53154e-25
-1.03272e-24
1.37451e-24
-1.52551e-24
2.29678e-24
-1.92673e-24
3.38266e-24
-2.25645e-24
4.59619e-24
-2.52418e-24
5.91407e-24
-2.73745e-24
7.3126e-24
-2.90227e-24
8.76864e-24
-3.02192e-24
1.02624e-23
-3.10013e-24
1.17756e-23
-3.1401e-24
1.3291e-23
-3.14442e-24
1.47923e-23
-3.11552e-24
1.62648e-23
-3.05586e-24
1.76948e-23
-2.9677e-24
1.90695e-23
-2.85311e-24
2.03771e-23
-2.71418e-24
2.16071e-23
-2.55301e-24
2.27495e-23
-2.37154e-24
2.37955e-23
-2.17175e-24
2.47372e-23
-1.95559e-24
2.55675e-23
-1.72505e-24
2.62803e-23
-1.48207e-24
2.68732e-23
-1.22854e-24
2.7343e-23
-9.71584e-25
2.76834e-23
-7.07925e-25
2.78915e-23
-4.31152e-25
2.79625e-23
-1.45175e-25
2.78935e-23
1.41716e-25
2.76872e-23
4.27788e-25
2.73484e-23
7.04739e-25
2.68803e-23
9.68469e-25
2.62891e-23
1.22545e-24
2.55779e-23
1.47911e-24
2.47491e-23
1.72231e-24
2.38089e-23
1.953e-24
2.27642e-23
2.1694e-24
2.1623e-23
2.3694e-24
2.03942e-23
2.55114e-24
1.90875e-23
2.71255e-24
1.77137e-23
2.85177e-24
1.62844e-23
2.96664e-24
1.48124e-23
3.05514e-24
1.33115e-23
3.11506e-24
1.17965e-23
3.14423e-24
1.02835e-23
3.1402e-24
8.78963e-24
3.10052e-24
7.3336e-24
3.02236e-24
5.93563e-24
2.90269e-24
4.61772e-24
2.73793e-24
3.40346e-24
2.52408e-24
2.3199e-24
2.25535e-24
1.39923e-24
1.92437e-24
6.78017e-25
1.51972e-24
1.92635e-25
1.02127e-24
4.204e-25
1.47223e-25
-5.77513e-25
5.66595e-25
-1.45407e-24
1.21662e-24
-2.1774e-24
2.05716e-24
-2.76904e-24
3.05126e-24
-3.25226e-24
4.17119e-24
-3.64575e-24
5.38991e-24
-3.95775e-24
6.68372e-24
-4.19758e-24
8.03221e-24
-4.37184e-24
9.41638e-24
-4.48565e-24
1.08185e-23
-4.5435e-24
1.22224e-23
-4.54952e-24
1.36134e-23
-4.50761e-24
1.49775e-23
-4.42105e-24
1.63019e-23
-4.29313e-24
1.75749e-23
-4.12704e-24
1.87858e-23
-3.92586e-24
1.99244e-23
-3.69242e-24
2.0982e-23
-3.42972e-24
2.19502e-23
-3.14058e-24
2.2822e-23
-2.82786e-24
2.35909e-23
-2.49439e-24
2.42517e-23
-2.14321e-24
2.48007e-23
-1.77782e-24
2.52315e-23
-1.40257e-24
2.55399e-23
-1.01636e-24
2.57259e-23
-6.17123e-25
2.5789e-23
-2.08164e-25
2.57274e-23
2.03535e-25
2.55429e-23
6.12553e-25
2.52361e-23
1.01193e-24
2.48068e-23
1.39829e-24
2.42591e-23
1.77368e-24
2.35997e-23
2.13924e-24
2.28321e-23
2.49064e-24
2.19615e-23
2.82437e-24
2.09944e-23
3.13739e-24
1.99379e-23
3.42685e-24
1.88002e-23
3.6899e-24
1.75901e-23
3.92371e-24
1.63178e-23
4.12529e-24
1.49939e-23
4.29177e-24
1.36303e-23
4.4201e-24
1.22396e-23
4.50713e-24
1.08358e-23
4.54951e-24
9.43376e-24
4.54383e-24
8.04964e-24
4.48628e-24
6.70103e-24
4.37272e-24
5.40694e-24
4.19871e-24
4.188e-24
3.95878e-24
3.06804e-24
3.64606e-24
2.07275e-24
3.25264e-24
1.2316e-24
2.76747e-24
5.79601e-25
2.17433e-24
1.55839e-25
1.44635e-24
5.76338e-25
1.30824e-25
-7.08812e-25
4.98499e-25
-1.82331e-24
1.07703e-24
-2.75743e-24
1.83391e-24
-3.52738e-24
2.73826e-24
-4.15802e-24
3.75992e-24
-4.66877e-24
4.87542e-24
-5.07456e-24
6.06265e-24
-5.38605e-24
7.30144e-24
-5.61179e-24
8.57378e-24
-5.75908e-24
9.86335e-24
-5.8341e-24
1.1155e-23
-5.84212e-24
1.24346e-23
-5.78814e-24
1.36895e-23
-5.67678e-24
1.49079e-23
-5.51228e-24
1.60789e-23
-5.29873e-24
1.71925e-23
-5.04006e-24
1.82396e-23
-4.74011e-24
1.9212e-23
-4.40261e-24
2.01022e-23
-4.03124e-24
2.09037e-23
-3.62967e-24
2.16106e-23
-3.20162e-24
2.2218e-23
-2.7508e-24
2.27212e-23
-2.28111e-24
2.31148e-23
-1.79622e-24
2.33959e-23
-1.2974e-24
2.35644e-23
-7.8556e-25
2.3621e-23
-2.6469e-25
2.35656e-23
2.59086e-25
2.33983e-23
7.80069e-25
2.31184e-23
1.29206e-24
2.2726e-23
1.79105e-24
2.2224e-23
2.2761e-24
2.16177e-23
2.74605e-24
2.09117e-23
3.19713e-24
2.01112e-23
3.62553e-24
1.92219e-23
4.02742e-24
1.82503e-23
4.39921e-24
1.72039e-23
4.73712e-24
1.60909e-23
5.03753e-24
1.49205e-23
5.29669e-24
1.37025e-23
5.51078e-24
1.24479e-23
5.6758e-24
1.11685e-23
5.78772e-24
9.87701e-24
5.84222e-24
8.58745e-24
5.83468e-24
7.31495e-24
5.76019e-24
6.07584e-24
5.61335e-24
4.88835e-24
5.38774e-24
3.7726e-24
5.07626e-24
2.74982e-24
4.67055e-24
1.84465e-24
4.15949e-24
1.08633e-24
3.52757e-24
5.05238e-25
2.75666e-24
1.33841e-25
1.81963e-24
7.10262e-25
1.15256e-25
-8.24571e-25
4.37247e-25
-2.14646e-24
9.51565e-25
-3.27294e-24
1.62733e-24
-4.20431e-24
2.43922e-24
-4.97105e-24
3.36189e-24
-5.59255e-24
4.37255e-24
-6.08628e-24
5.45049e-24
-6.46499e-24
6.57714e-24
-6.73939e-24
7.73567e-24
-6.91849e-24
8.91048e-24
-7.00974e-24
1.00876e-23
-7.02001e-24
1.12542e-23
-6.95544e-24
1.23984e-23
-6.82159e-24
1.35092e-23
-6.6237e-24
1.45768e-23
-6.36684e-24
1.5592e-23
-6.05571e-24
1.65465e-23
-5.69501e-24
1.74327e-23
-5.2892e-24
1.82439e-23
-4.84277e-24
1.89741e-23
-4.3601e-24
1.96179e-23
-3.84559e-24
2.01706e-23
-3.30356e-24
2.06278e-23
-2.73836e-24
2.09855e-23
-2.15395e-24
2.12415e-23
-1.55328e-24
2.13951e-23
-9.39124e-25
2.14466e-23
-3.16114e-25
2.13959e-23
3.09898e-25
2.12432e-23
9.32994e-25
2.09882e-23
1.5473e-24
2.06313e-23
2.14818e-24
2.01749e-23
2.73281e-24
1.9623e-23
3.29828e-24
1.898e-23
3.8406e-24
1.82505e-23
4.35547e-24
1.74399e-23
4.83856e-24
1.65543e-23
5.28543e-24
1.56003e-23
5.69174e-24
1.45856e-23
6.05299e-24
1.35184e-23
6.36467e-24
1.24079e-23
6.62212e-24
1.12639e-23
6.82063e-24
1.00975e-23
6.95512e-24
8.92041e-24
7.02034e-24
7.74551e-24
7.01068e-24
6.58688e-24
6.91999e-24
5.46009e-24
6.74136e-24
4.38187e-24
6.46737e-24
3.37041e-24
6.08912e-24
2.44699e-24
5.59537e-24
1.6346e-24
4.97324e-24
9.56591e-25
4.20682e-24
4.41133e-25
3.27421e-24
1.14787e-25
2.14665e-24
8.25113e-25
9.88368e-26
-9.23629e-25
3.82822e-25
-2.43144e-24
8.33989e-25
-3.72507e-24
1.43202e-24
-4.80329e-24
2.15332e-24
-5.69329e-24
2.97651e-24
-6.41664e-24
3.8809e-24
-6.99154e-24
4.84776e-24
-7.43267e-24
5.86008e-24
-7.75248e-24
6.90225e-24
-7.96136e-24
7.96003e-24
-8.06817e-24
9.02051e-24
-8.08109e-24
1.00718e-23
-8.00729e-24
1.11031e-23
-7.85335e-24
1.21045e-23
-7.62551e-24
1.30668e-23
-7.3296e-24
1.39819e-23
-6.97117e-24
1.48422e-23
-6.55561e-24
1.56409e-23
-6.08817e-24
1.63719e-23
-5.57396e-24
1.70297e-23
-5.01805e-24
1.76094e-23
-4.42542e-24
1.81068e-23
-3.80101e-24
1.8518e-23
-3.14962e-24
1.88399e-23
-2.47585e-24
1.90705e-23
-1.78378e-24
1.9209e-23
-1.07759e-24
1.92554e-23
-3.62393e-25
1.92096e-23
3.55865e-25
1.90716e-23
1.07113e-24
1.88416e-23
1.77748e-24
1.85203e-23
2.46974e-24
1.81096e-23
3.14375e-24
1.76127e-23
3.79542e-24
1.70335e-23
4.42018e-24
1.63762e-23
5.01318e-24
1.56456e-23
5.56954e-24
1.48473e-23
6.08423e-24
1.39873e-23
6.55221e-24
1.30726e-23
6.96835e-24
1.21105e-23
7.3274e-24
1.11093e-23
7.62398e-24
1.00782e-23
7.8525e-24
9.02697e-24
8.00711e-24
7.96652e-24
8.08164e-24
6.90871e-24
8.0694e-24
5.86652e-24
7.96316e-24
4.85392e-24
7.75503e-24
3.88665e-24
7.43574e-24
2.98226e-24
6.99472e-24
2.15862e-24
6.4202e-24
1.43576e-24
5.69726e-24
8.37234e-25
4.80658e-24
3.8501e-25
3.72694e-24
1.00645e-25
2.43247e-24
9.25813e-25
8.58033e-26
-1.0098e-24
3.31697e-25
-2.67811e-24
7.24138e-25
-4.11831e-24
1.24616e-24
-5.32611e-24
1.87836e-24
-6.32627e-24
2.60212e-24
-7.14115e-24
3.39959e-24
-7.78974e-24
4.25418e-24
-8.28793e-24
5.1504e-24
-8.64934e-24
6.07412e-24
-8.88567e-24
7.01261e-24
-9.0072e-24
7.95408e-24
-9.02305e-24
8.88775e-24
-8.94141e-24
9.80391e-24
-8.76992e-24
1.06936e-23
-8.5156e-24
1.15488e-23
-8.18503e-24
1.23619e-23
-7.78456e-24
1.31263e-23
-7.32023e-24
1.38358e-23
-6.79795e-24
1.44851e-23
-6.22343e-24
1.50693e-23
-5.60233e-24
1.55839e-23
-4.9402e-24
1.60254e-23
-4.24249e-24
1.63903e-23
-3.51454e-24
1.6676e-23
-2.76157e-24
1.68808e-23
-1.98856e-24
1.7004e-23
-1.20064e-24
1.70451e-23
-4.0346e-25
1.70042e-23
3.96877e-25
1.68814e-23
1.19414e-24
1.66769e-23
1.9822e-24
1.63914e-23
2.7554e-24
1.60268e-23
3.50861e-24
1.55856e-23
4.23685e-24
1.50712e-23
4.93491e-24
1.44873e-23
5.59744e-24
1.38382e-23
6.21899e-24
1.31288e-23
6.79402e-24
1.23646e-23
7.31686e-24
1.15517e-23
7.78179e-24
1.06967e-23
8.18291e-24
9.80715e-24
8.51415e-24
8.8911e-24
8.76918e-24
7.95749e-24
8.9414e-24
7.01611e-24
9.02375e-24
6.07763e-24
9.00867e-24
5.15377e-24
8.88786e-24
4.25756e-24
8.65212e-24
3.40302e-24
8.29127e-24
2.60501e-24
7.79374e-24
1.8808e-24
7.14541e-24
1.24867e-24
6.33025e-24
7.25994e-25
5.33004e-24
3.32405e-25
4.12219e-24
8.58019e-26
2.67929e-24
1.01166e-24
7.35264e-26
-1.08346e-24
2.83085e-25
-2.8884e-24
6.19454e-25
-4.45537e-24
1.06757e-24
-5.77489e-24
1.61213e-24
-6.87149e-24
2.23736e-24
-7.76701e-24
2.92786e-24
-8.48084e-24
3.6692e-24
-9.02984e-24
4.4479e-24
-9.42858e-24
5.25152e-24
-9.68978e-24
6.0687e-24
-9.82484e-24
6.88896e-24
-9.84372e-24
7.70283e-24
-9.75565e-24
8.5017e-24
-9.56911e-24
9.27763e-24
-9.29182e-24
1.00235e-23
-8.93112e-24
1.07327e-23
-8.494e-24
1.13993e-23
-7.98711e-24
1.20182e-23
-7.41693e-24
1.25843e-23
-6.78974e-24
1.30936e-23
-6.11172e-24
1.35422e-23
-5.38888e-24
1.39269e-23
-4.6272e-24
1.42449e-23
-3.83253e-24
1.44939e-23
-3.01064e-24
1.46726e-23
-2.1672e-24
1.47801e-23
-1.30803e-24
1.4816e-23
-4.39223e-25
1.47801e-23
4.32843e-25
1.46727e-23
1.30171e-24
1.4494e-23
2.16101e-24
1.4245e-23
3.00463e-24
1.39271e-23
3.82677e-24
1.35424e-23
4.62172e-24
1.30939e-23
5.38375e-24
1.25847e-23
6.10697e-24
1.20185e-23
6.78545e-24
1.13998e-23
7.41314e-24
1.07331e-23
7.98388e-24
1.0024e-23
8.49136e-24
9.27823e-24
8.92913e-24
8.50238e-24
9.2905e-24
7.70361e-24
9.56849e-24
6.8898e-24
9.75577e-24
6.06959e-24
9.84458e-24
5.25248e-24
9.82642e-24
4.44897e-24
9.69207e-24
3.67028e-24
9.43158e-24
2.92885e-24
9.03349e-24
2.23857e-24
8.48485e-24
1.61342e-24
7.77136e-24
1.06823e-24
6.87628e-24
6.19942e-25
5.77918e-24
2.83726e-25
4.45845e-24
7.37798e-26
2.89039e-24
1.08547e-24
6.12038e-26
-1.14497e-24
2.36725e-25
-3.06445e-24
5.18527e-25
-4.73772e-24
8.94893e-25
-6.15179e-24
1.35331e-24
-7.33043e-24
1.88072e-24
-8.29492e-24
2.4644e-24
-9.065e-24
3.09211e-24
-9.65801e-24
3.75231e-24
-1.00892e-23
4.43437e-24
-1.03722e-23
5.12857e-24
-1.05194e-23
5.82582e-24
-1.05413e-23
6.51791e-24
-1.0448e-23
7.19745e-24
-1.02489e-23
7.85763e-24
-9.95223e-24
8.49227e-24
-9.56596e-24
9.09577e-24
-9.09766e-24
9.66305e-24
-8.55455e-24
1.01896e-23
-7.94358e-24
1.06713e-23
-7.27154e-24
1.11045e-23
-6.54501e-24
1.1486e-23
-5.77049e-24
1.18132e-23
-4.95437e-24
1.20836e-23
-4.10296e-24
1.22955e-23
-3.2225e-24
1.24475e-23
-2.31922e-24
1.2539e-23
-1.39942e-24
1.25695e-23
-4.69594e-25
1.25388e-23
4.63608e-25
1.24472e-23
1.39349e-24
1.22949e-23
2.3134e-24
1.20829e-23
3.21685e-24
1.18123e-23
4.09754e-24
1.1485e-23
4.94923e-24
1.11033e-23
5.76567e-24
1.067e-23
6.54057e-24
1.01882e-23
7.26753e-24
9.66161e-24
7.94006e-24
9.09426e-24
8.55155e-24
8.49074e-24
9.09524e-24
7.85611e-24
9.56415e-24
7.19595e-24
9.95107e-24
6.51647e-24
1.02484e-23
5.82447e-24
1.04482e-23
5.12734e-24
1.05422e-23
4.43328e-24
1.0521e-23
3.75133e-24
1.03746e-23
3.09132e-24
1.00922e-23
2.46392e-24
9.66155e-24
1.88031e-24
9.06913e-24
1.35297e-24
8.29937e-24
8.95018e-25
7.33473e-24
5.18649e-25
6.15601e-24
2.36869e-25
4.74157e-24
6.09473e-26
3.06622e-24
1.14644e-24
4.95917e-26
-1.1946e-24
1.91934e-25
-3.20726e-24
4.20743e-25
-4.96696e-24
7.26916e-25
-6.45837e-24
1.10042e-24
-7.70431e-24
1.53087e-24
-8.72575e-24
2.00802e-24
-9.54251e-24
2.52187e-24
-1.01722e-23
3.06293e-24
-1.06306e-23
3.62241e-24
-1.0932e-23
4.19228e-24
-1.10895e-23
4.76495e-24
-1.11142e-23
5.33357e-24
-1.10169e-23
5.89209e-24
-1.08076e-23
6.43479e-24
-1.04951e-23
6.95654e-24
-1.00879e-23
7.45271e-24
-9.59395e-24
7.91911e-24
-9.02105e-24
8.35197e-24
-8.37653e-24
8.74794e-24
-7.66756e-24
9.10402e-24
-6.90113e-24
9.41761e-24
-6.08411e-24
9.68645e-24
-5.22322e-24
9.90867e-24
-4.32518e-24
1.00828e-23
-3.39661e-24
1.02078e-23
-2.44416e-24
1.02829e-23
-1.47451e-24
1.03079e-23
-4.94484e-25
1.02826e-23
4.89041e-25
1.02071e-23
1.46913e-24
1.00817e-23
2.43888e-24
9.90723e-24
3.39149e-24
9.68468e-24
4.32026e-24
9.41553e-24
5.21856e-24
9.10166e-24
6.07974e-24
8.74532e-24
6.89712e-24
8.34914e-24
7.66395e-24
7.91609e-24
8.37336e-24
7.44954e-24
9.01836e-24
6.95328e-24
9.59179e-24
6.43147e-24
1.00863e-23
5.88876e-24
1.04941e-23
5.3303e-24
1.08072e-23
4.76178e-24
1.10171e-23
4.18925e-24
1.11151e-23
3.61959e-24
1.10911e-23
3.06039e-24
1.09342e-23
2.51964e-24
1.06334e-23
2.0061e-24
1.01756e-23
1.52941e-24
9.54631e-24
1.09943e-24
8.7298e-24
7.26111e-25
7.70861e-24
4.20316e-25
6.46234e-24
1.91764e-25
4.96981e-24
4.97458e-26
3.20915e-24
1.19621e-24
3.82753e-26
-1.2331e-24
1.48371e-25
-3.31759e-24
3.25385e-25
-5.14424e-24
5.62535e-25
-6.69577e-24
8.52205e-25
-7.99423e-24
1.18652e-24
-9.0603e-24
1.5575e-24
-9.91372e-24
1.95742e-24
-1.05723e-23
2.3789e-24
-1.10523e-23
2.81505e-24
-1.13683e-23
3.25953e-24
-1.15341e-23
3.70625e-24
-1.15611e-23
4.1501e-24
-1.14608e-23
4.58619e-24
-1.12438e-23
5.01e-24
-1.0919e-23
5.41745e-24
-1.04954e-23
5.80492e-24
-9.98148e-24
6.16914e-24
-9.38531e-24
6.50715e-24
-8.71458e-24
6.81633e-24
-7.97677e-24
7.09435e-24
-7.17916e-24
7.33915e-24
-6.32891e-24
7.549e-24
-5.43307e-24
7.72246e-24
-4.49862e-24
7.85839e-24
-3.5325e-24
7.95595e-24
-2.54166e-24
8.01458e-24
-1.53308e-24
8.03397e-24
-5.138e-25
8.01403e-24
5.09061e-25
7.95489e-24
1.52837e-24
7.85684e-24
2.53704e-24
7.72042e-24
3.52802e-24
7.54649e-24
4.49432e-24
7.33619e-24
5.429e-24
7.09098e-24
6.32511e-24
6.8126e-24
7.17566e-24
6.5031e-24
7.97362e-24
6.16481e-24
8.71183e-24
5.80038e-24
9.38299e-24
5.41275e-24
9.97962e-24
5.00521e-24
1.0494e-23
4.58138e-24
1.09182e-23
4.14534e-24
1.12435e-23
3.70159e-24
1.14611e-23
3.25508e-24
1.15619e-23
2.81089e-24
1.15356e-23
2.37507e-24
1.13704e-23
1.95399e-24
1.10548e-23
1.55462e-24
1.05753e-23
1.1842e-24
9.91711e-24
8.50363e-25
9.06401e-24
5.61288e-25
7.99785e-24
3.24664e-25
6.69915e-24
1.4821e-25
5.14733e-24
3.80609e-26
3.31895e-24
1.23428e-24
2.72972e-26
-1.26034e-24
1.05655e-25
-3.39611e-24
2.31807e-25
-5.27051e-24
4.00899e-25
-6.86498e-24
6.07592e-25
-8.20103e-24
8.46312e-25
-9.29912e-24
1.11142e-24
-1.01789e-23
1.39746e-24
-1.08585e-23
1.69913e-24
-1.1354e-23
2.0113e-24
-1.16806e-23
2.32967e-24
-1.18526e-23
2.64959e-24
-1.1881e-23
2.96764e-24
-1.17789e-23
3.28018e-24
-1.15564e-23
3.58393e-24
-1.12228e-23
3.87593e-24
-1.07874e-23
4.15361e-24
-1.02592e-23
4.41461e-24
-9.64631e-24
4.65682e-24
-8.95679e-24
4.87835e-24
-8.19828e-24
5.07753e-24
-7.37832e-24
5.25291e-24
-6.50425e-24
5.40323e-24
-5.58336e-24
5.52746e-24
-4.62281e-24
5.62478e-24
-3.62978e-24
5.69459e-24
-2.61142e-24
5.7365e-24
-1.57493e-24
5.75028e-24
-5.27516e-25
5.73586e-24
5.23552e-25
5.6933e-24
1.57101e-24
5.62285e-24
2.60758e-24
5.52491e-24
3.62604e-24
5.4001e-24
4.61922e-24
5.24925e-24
5.57995e-24
5.07337e-24
6.50109e-24
4.87373e-24
7.37541e-24
4.65178e-24
8.19568e-24
4.40923e-24
8.9545e-24
4.14795e-24
9.64439e-24
3.87008e-24
1.02576e-23
3.57796e-24
1.07863e-23
3.27416e-24
1.12221e-23
2.96166e-24
1.15562e-23
2.64377e-24
1.17792e-23
2.32408e-24
1.18818e-23
2.00604e-24
1.18538e-23
1.69431e-24
1.16823e-23
1.39321e-24
1.13561e-23
1.10771e-24
1.0861e-23
8.43216e-25
1.01818e-23
6.05298e-25
9.30206e-24
3.99363e-25
8.20409e-24
2.30856e-25
6.86789e-24
1.04992e-25
5.27259e-24
2.71647e-26
3.39746e-24
1.26145e-24
1.63986e-26
-1.27686e-24
6.35822e-26
-3.44322e-24
1.39451e-25
-5.34634e-24
2.41112e-25
-6.96661e-24
3.65398e-25
-8.32528e-24
5.08948e-25
-9.44264e-24
6.68389e-25
-1.03383e-23
8.40425e-25
-1.10305e-23
1.02225e-24
-1.15358e-23
1.21083e-24
-1.18691e-23
1.40167e-24
-1.20434e-23
1.59404e-24
-1.20734e-23
1.78603e-24
-1.19709e-23
1.97445e-24
-1.17448e-23
2.15709e-24
-1.14054e-23
2.33271e-24
-1.0963e-23
2.49976e-24
-1.04262e-23
2.6568e-24
-9.8033e-24
2.80252e-24
-9.10246e-24
2.93578e-24
-8.3315e-24
3.05558e-24
-7.49806e-24
3.16103e-24
-6.60965e-24
3.25138e-24
-5.67365e-24
3.32602e-24
-4.69739e-24
3.38446e-24
-3.68816e-24
3.42634e-24
-2.65324e-24
3.45141e-24
-1.59994e-24
3.45952e-24
-5.35578e-25
3.45065e-24
5.32479e-25
3.42485e-24
1.59687e-24
3.38225e-24
2.65023e-24
3.32311e-24
3.68524e-24
3.2478e-24
4.69459e-24
3.15682e-24
5.671e-24
3.05079e-24
6.60718e-24
2.93047e-24
7.49579e-24
2.79674e-24
8.32946e-24
2.65062e-24
9.10068e-24
2.49327e-24
9.80181e-24
2.32598e-24
1.0425e-23
2.15022e-24
1.09621e-23
1.96752e-24
1.14049e-23
1.77916e-24
1.17446e-23
1.5873e-24
1.19711e-23
1.39521e-24
1.20739e-23
1.20478e-24
1.20443e-23
1.01669e-24
1.18704e-23
8.35404e-25
1.15374e-23
6.64111e-25
1.10323e-23
5.05546e-25
1.03404e-23
3.62665e-25
9.44503e-24
2.39012e-25
8.3276e-24
1.38174e-25
6.96866e-24
6.33015e-26
5.34824e-24
1.62314e-26
3.44395e-24
1.27767e-24
5.70407e-27
-1.2824e-24
2.18574e-26
-3.45922e-24
4.77843e-26
-5.37209e-24
8.24145e-26
-7.00106e-24
1.24622e-25
-8.36731e-24
1.73271e-25
-9.49112e-24
2.27176e-25
-1.03921e-23
2.85069e-25
-1.10882e-23
3.45661e-25
-1.15962e-23
4.08509e-25
-1.19319e-23
4.73834e-25
-1.21086e-23
5.41627e-25
-1.2141e-23
6.06546e-25
-1.20357e-23
6.68499e-25
-1.18066e-23
7.29309e-25
-1.14661e-23
7.88168e-25
-1.10217e-23
8.44177e-25
-1.04821e-23
8.96811e-25
-9.85584e-24
9.45634e-25
-9.1512e-24
9.90255e-25
-8.37603e-24
1.03032e-24
-7.53805e-24
1.06555e-24
-6.6448e-24
1.09569e-24
-5.70371e-24
1.12054e-24
-4.72216e-24
1.13993e-24
-3.70748e-24
1.15373e-24
-2.66699e-24
1.16188e-24
-1.60803e-24
1.16433e-24
-5.3798e-25
1.16107e-24
5.35784e-25
1.15211e-24
1.60586e-24
1.13751e-24
2.66486e-24
1.11736e-24
3.70541e-24
1.09179e-24
4.72018e-24
1.06097e-24
5.70184e-24
1.02511e-24
6.64305e-24
9.84463e-25
7.53645e-24
9.39341e-25
8.37459e-24
8.90084e-25
9.14994e-24
8.37102e-25
9.85478e-24
7.80835e-25
1.04812e-23
7.21824e-25
1.10211e-23
6.60955e-25
1.14657e-23
5.99067e-25
1.18065e-23
5.34319e-25
1.20358e-23
4.66814e-25
1.21414e-23
4.01877e-25
1.21092e-23
3.39558e-25
1.19327e-23
2.79689e-25
1.15973e-23
2.22495e-25
1.10895e-23
1.69236e-25
1.03936e-23
1.21579e-25
9.49253e-24
8.04693e-26
8.36876e-24
4.65044e-26
7.00258e-24
2.08184e-26
5.37305e-24
5.3465e-27
3.45986e-24
1.28301e-24
-5.05262e-27
-1.27737e-24
-1.97334e-26
-3.44416e-24
-4.36568e-26
-5.34783e-24
-7.59608e-26
-6.96843e-24
-1.15674e-25
-8.32729e-24
-1.61767e-25
-9.44472e-24
-2.13151e-25
-1.03404e-23
-2.68599e-25
-1.10325e-23
-3.26869e-25
-1.15377e-23
-3.8753e-25
-1.18709e-23
-4.5081e-25
-1.20451e-23
-5.16721e-25
-1.20749e-23
-5.79915e-25
-1.19723e-23
-6.40326e-25
-1.1746e-23
-6.99788e-25
-1.14065e-23
-7.57471e-25
-1.09639e-23
-8.12488e-25
-1.04269e-23
-8.64302e-25
-9.80389e-24
-9.12485e-25
-9.10288e-24
-9.56635e-25
-8.33176e-24
-9.96403e-25
-7.49817e-24
-1.03149e-24
-6.6096e-24
-1.06165e-24
-5.67345e-24
-1.08667e-24
-4.69705e-24
-1.10639e-24
-3.68767e-24
-1.12069e-24
-2.65263e-24
-1.12947e-24
-1.5992e-24
-1.13269e-24
-5.34721e-25
-1.13033e-24
5.3345e-25
-1.12238e-24
1.59794e-24
-1.10892e-24
2.6514e-24
-1.08999e-24
3.68649e-24
-1.06573e-24
4.69591e-24
-1.03628e-24
5.67237e-24
-1.00185e-24
6.60859e-24
-9.62685e-25
7.49725e-24
-9.19073e-25
8.33093e-24
-8.71342e-25
9.10215e-24
-8.19888e-25
9.80326e-24
-7.65143e-25
1.04264e-23
-7.07628e-25
1.09635e-23
-6.48227e-25
1.14062e-23
-5.8776e-25
1.17459e-23
-5.2438e-25
1.19723e-23
-4.58164e-25
1.2075e-23
-3.94437e-25
1.20453e-23
-3.33228e-25
1.18713e-23
-2.74401e-25
1.15382e-23
-2.1815e-25
1.1033e-23
-1.65715e-25
1.03409e-23
-1.18863e-25
9.44549e-24
-7.85947e-26
8.32805e-24
-4.52602e-26
6.96892e-24
-2.01546e-26
5.34841e-24
-5.18389e-27
3.4441e-24
1.27781e-24
-1.57803e-26
-1.26133e-24
-6.15189e-26
-3.39795e-24
-1.35417e-25
-5.27344e-24
-2.34826e-25
-6.86855e-24
-3.56699e-25
-8.20495e-24
-4.978e-25
-9.30317e-24
-6.54798e-25
-1.0183e-23
-8.24465e-25
-1.08624e-23
-1.00403e-24
-1.13577e-23
-1.19048e-24
-1.16841e-23
-1.37933e-24
-1.18559e-23
-1.56989e-24
-1.1884e-23
-1.76026e-24
-1.17816e-23
-1.94722e-24
-1.15588e-23
-2.12856e-24
-1.12249e-23
-2.30305e-24
-1.07892e-23
-2.46915e-24
-1.02606e-23
-2.62539e-24
-9.64745e-24
-2.77048e-24
-8.9576e-24
-2.90328e-24
-8.1988e-24
-3.02278e-24
-7.37852e-24
-3.12809e-24
-6.50416e-24
-3.21847e-24
-5.58295e-24
-3.29329e-24
-4.62213e-24
-3.35205e-24
-3.62882e-24
-3.39439e-24
-2.61021e-24
-3.42007e-24
-1.57346e-24
-3.42893e-24
-5.2582e-25
-3.42094e-24
5.25478e-25
-3.39611e-24
1.57312e-24
-3.35459e-24
2.60988e-24
-3.29662e-24
3.6285e-24
-3.22259e-24
4.62182e-24
-3.13293e-24
5.58266e-24
-3.0283e-24
6.50389e-24
-2.9094e-24
7.37826e-24
-2.77714e-24
8.19857e-24
-2.63249e-24
8.95739e-24
-2.47663e-24
9.64726e-24
-2.3108e-24
1.02604e-23
-2.1365e-24
1.0789e-23
-1.95521e-24
1.12247e-23
-1.76821e-24
1.15586e-23
-1.57764e-24
1.17815e-23
-1.38679e-24
1.18839e-23
-1.19756e-24
1.18557e-23
-1.01058e-24
1.1684e-23
-8.30234e-25
1.13575e-23
-6.59863e-25
1.08623e-23
-5.02276e-25
1.01829e-23
-3.60119e-25
9.30288e-24
-2.36961e-25
8.20468e-24
-1.36926e-25
6.86851e-24
-6.28395e-26
5.27317e-24
-1.62683e-26
3.39769e-24
1.26152e-24
-2.66488e-26
-1.2346e-24
-1.03656e-25
-3.32023e-24
-2.27983e-25
-5.14845e-24
-3.94973e-25
-6.70092e-24
-5.99419e-25
-7.99989e-24
-8.35855e-25
-9.06614e-24
-1.09872e-24
-9.91954e-24
-1.38258e-24
-1.0578e-23
-1.68215e-24
-1.10577e-23
-1.99238e-24
-1.13734e-23
-2.30893e-24
-1.15389e-23
-2.62718e-24
-1.15654e-23
-2.94369e-24
-1.14647e-23
-3.25488e-24
-1.12472e-23
-3.55741e-24
-1.0922e-23
-3.84837e-24
-1.04979e-23
-4.12513e-24
-9.98357e-24
-4.3854e-24
-9.38693e-24
-4.62701e-24
-8.71576e-24
-4.84813e-24
-7.97748e-24
-5.04702e-24
-7.17945e-24
-5.22227e-24
-6.32875e-24
-5.37257e-24
-5.4325e-24
-5.49698e-24
-4.49761e-24
-5.59458e-24
-3.53111e-24
-5.66486e-24
-2.53986e-24
-5.70731e-24
-1.53094e-24
-5.72179e-24
-5.11312e-25
-5.70813e-24
5.11846e-25
-5.66652e-24
1.53148e-24
-5.59706e-24
2.5404e-24
-5.50025e-24
3.53163e-24
-5.37659e-24
4.49811e-24
-5.22699e-24
5.43296e-24
-5.05238e-24
6.32918e-24
-4.8541e-24
7.17984e-24
-4.63351e-24
7.97783e-24
-4.39235e-24
8.71605e-24
-4.13243e-24
9.38715e-24
-3.85596e-24
9.98372e-24
-3.56517e-24
1.0498e-23
-3.26272e-24
1.0922e-23
-2.95148e-24
1.12471e-23
-2.63482e-24
1.14645e-23
-2.3163e-24
1.1565e-23
-1.99932e-24
1.15383e-23
-1.68857e-24
1.13728e-23
-1.38851e-24
1.1057e-23
-1.10387e-24
1.05771e-23
-8.39873e-25
9.91847e-24
-6.0279e-25
9.06532e-24
-3.97917e-25
7.99903e-24
-2.29809e-25
6.6998e-24
-1.04175e-25
5.14762e-24
-2.68474e-26
3.31933e-24
1.23463e-24
-3.77224e-26
-1.19651e-24
-1.4653e-25
-3.2106e-24
-3.21909e-25
-4.97224e-24
-5.57177e-25
-6.46484e-24
-8.4488e-25
-7.71141e-24
-1.17717e-24
-8.73311e-24
-1.54617e-24
-9.54983e-24
-1.94418e-24
-1.01793e-23
-2.36385e-24
-1.06374e-23
-2.79828e-24
-1.09384e-23
-3.24116e-24
-1.10955e-23
-3.68639e-24
-1.11196e-23
-4.12891e-24
-1.10217e-23
-4.56377e-24
-1.08119e-23
-4.9865e-24
-1.04989e-23
-5.393e-24
-1.0091e-23
-5.77967e-24
-9.59657e-24
-6.14321e-24
-9.02308e-24
-6.4807e-24
-8.378e-24
-6.78947e-24
-7.66845e-24
-7.06723e-24
-6.90147e-24
-7.3119e-24
-6.08387e-24
-7.52177e-24
-5.22247e-24
-7.69536e-24
-4.32387e-24
-7.83154e-24
-3.39482e-24
-7.92946e-24
-2.44185e-24
-7.98858e-24
-1.47177e-24
-8.00858e-24
-4.91263e-25
-7.98938e-24
4.92633e-25
-7.93104e-24
1.47312e-24
-7.83387e-24
2.44317e-24
-7.69843e-24
3.39611e-24
-7.52554e-24
4.32511e-24
-7.31635e-24
5.22365e-24
-7.07228e-24
6.08496e-24
-6.7951e-24
6.90249e-24
-6.48681e-24
7.66932e-24
-6.14976e-24
8.37876e-24
-5.78656e-24
9.02367e-24
-5.40017e-24
9.59702e-24
-4.99383e-24
1.00913e-23
-4.57119e-24
1.04989e-23
-4.13629e-24
1.08118e-23
-3.69365e-24
1.10214e-23
-3.24815e-24
1.1119e-23
-2.80497e-24
1.10947e-23
-2.37007e-24
1.09373e-23
-1.94969e-24
1.0636e-23
-1.55104e-24
1.01779e-23
-1.1817e-24
9.54837e-24
-8.48379e-25
8.73119e-24
-5.59262e-25
7.70942e-24
-3.23541e-25
6.46334e-24
-1.48118e-25
4.97076e-24
-3.83582e-26
3.2094e-24
1.19623e-24
-4.90244e-26
-1.14728e-24
-1.90314e-25
-3.06824e-24
-4.17723e-25
-4.74381e-24
-7.22359e-25
-6.15923e-24
-1.09425e-24
-7.33858e-24
-1.52308e-24
-8.30338e-24
-1.99863e-24
-9.07342e-24
-2.51089e-24
-9.66623e-24
-3.05047e-24
-1.00971e-23
-3.60852e-24
-1.03797e-23
-4.17709e-24
-1.05262e-23
-4.74852e-24
-1.05476e-23
-5.31603e-24
-1.04537e-23
-5.87349e-24
-1.02539e-23
-6.41532e-24
-9.95657e-24
-6.93624e-24
-9.56968e-24
-7.43176e-24
-9.10065e-24
-7.89753e-24
-8.55693e-24
-8.32999e-24
-7.94522e-24
-8.72555e-24
-7.27258e-24
-9.08146e-24
-6.54532e-24
-9.39486e-24
-5.77024e-24
-9.66375e-24
-4.95339e-24
-9.886e-24
-4.10145e-24
-1.00604e-23
-3.22029e-24
-1.01856e-23
-2.31653e-24
-1.02613e-23
-1.39608e-24
-1.02866e-23
-4.65852e-25
-1.0262e-23
4.67939e-25
-1.0187e-23
1.39814e-24
-1.00625e-23
2.31857e-24
-9.88875e-24
3.22226e-24
-9.66715e-24
4.10336e-24
-9.39884e-24
4.95518e-24
-9.08603e-24
5.77193e-24
-8.7306e-24
6.54683e-24
-8.33552e-24
7.27396e-24
-7.90343e-24
7.94637e-24
-7.43801e-24
8.55789e-24
-6.9427e-24
9.10134e-24
-6.42199e-24
9.57014e-24
-5.8802e-24
9.95669e-24
-5.32277e-24
1.02538e-23
-4.75512e-24
1.04532e-23
-4.18355e-24
1.05468e-23
-3.6146e-24
1.0525e-23
-3.05616e-24
1.03782e-23
-2.51623e-24
1.00954e-23
-2.00341e-24
9.66413e-24
-1.52675e-24
9.07091e-24
-1.09738e-24
8.30107e-24
-7.25508e-25
7.33639e-24
-4.19701e-25
6.15664e-24
-1.90844e-25
4.74159e-24
-4.92148e-26
3.06652e-24
1.14696e-24
-6.07325e-26
-1.08608e-24
-2.35428e-25
-2.89237e-24
-5.16201e-25
-4.46188e-24
-8.91443e-25
-5.78287e-24
-1.34868e-24
-6.88026e-24
-1.87495e-24
-7.77606e-24
-2.45746e-24
-8.48992e-24
-3.08404e-24
-9.03871e-24
-3.74315e-24
-9.43706e-24
-4.42419e-24
-9.69779e-24
-5.11737e-24
-9.83228e-24
-5.81371e-24
-9.85055e-24
-6.50491e-24
-9.76181e-24
-7.1837e-24
-9.57456e-24
-7.84314e-24
-9.29656e-24
-8.47719e-24
-8.93514e-24
-9.0801e-24
-8.49726e-24
-9.64698e-24
-7.98965e-24
-1.01731e-23
-7.41872e-24
-1.06545e-23
-6.79081e-24
-1.10875e-23
-6.11204e-24
-1.1469e-23
-5.38851e-24
-1.17961e-23
-4.6261e-24
-1.20666e-23
-3.83077e-24
-1.22785e-23
-3.00817e-24
-1.24308e-23
-2.16413e-24
-1.25225e-23
-1.30431e-24
-1.25534e-23
-4.34982e-25
-1.25231e-23
4.37658e-25
-1.2432e-23
1.30696e-24
-1.22803e-23
2.16675e-24
-1.20689e-23
3.0107e-24
-1.17989e-23
3.83323e-24
-1.14724e-23
4.62839e-24
-1.10914e-23
5.39068e-24
-1.06588e-23
6.11398e-24
-1.01778e-23
6.79259e-24
-9.65201e-24
7.42018e-24
-9.08542e-24
7.9909e-24
-8.48272e-24
8.49815e-24
-7.84883e-24
8.93576e-24
-7.18947e-24
9.29676e-24
-6.51071e-24
9.57446e-24
-5.81944e-24
9.76123e-24
-5.12292e-24
9.8496e-24
-4.42955e-24
9.83092e-24
-3.74825e-24
9.69608e-24
-3.08856e-24
9.43474e-24
-2.46152e-24
9.03624e-24
-1.87898e-24
8.48735e-24
-1.35209e-24
7.77298e-24
-8.93273e-25
6.8768e-24
-5.17768e-25
5.78009e-24
-2.37288e-25
4.45944e-24
-6.16664e-26
2.89047e-24
1.08524e-24
-7.3001e-26
-1.01276e-24
-2.82284e-25
-2.68174e-24
-6.18007e-25
-4.12486e-24
-1.06561e-24
-5.334e-24
-1.6096e-24
-6.33506e-24
-2.23417e-24
-7.15032e-24
-2.92403e-24
-7.79894e-24
-3.66476e-24
-8.29691e-24
-4.4428e-24
-8.65803e-24
-5.2458e-24
-8.89386e-24
-6.06233e-24
-9.01488e-24
-6.88206e-24
-9.03001e-24
-7.69533e-24
-8.94779e-24
-8.49371e-24
-8.77549e-24
-9.26912e-24
-8.52053e-24
-1.00146e-23
-8.18908e-24
-1.07234e-23
-7.788e-24
-1.13898e-23
-7.32273e-24
-1.20083e-23
-6.79986e-24
-1.25743e-23
-6.22437e-24
-1.30833e-23
-5.60273e-24
-1.35319e-23
-4.93961e-24
-1.39164e-23
-4.2414e-24
-1.42345e-23
-3.51246e-24
-1.44835e-23
-2.75906e-24
-1.46624e-23
-1.98508e-24
-1.47699e-23
-1.19682e-24
-1.48061e-23
-3.98731e-25
-1.47703e-23
4.0182e-25
-1.46633e-23
1.1999e-24
-1.44848e-23
1.98807e-24
-1.42363e-23
2.76201e-24
-1.39186e-23
3.51523e-24
-1.35346e-23
4.2441e-24
-1.30862e-23
4.94202e-24
-1.25777e-23
5.60504e-24
-1.20118e-23
6.2263e-24
-1.13937e-23
6.80165e-24
-1.07274e-23
7.32409e-24
-1.0019e-23
7.78915e-24
-9.2735e-24
8.18971e-24
-8.49829e-24
8.52093e-24
-7.69981e-24
8.77529e-24
-6.88662e-24
8.9473e-24
-6.06674e-24
9.02893e-24
-5.25014e-24
9.01344e-24
-4.44676e-24
8.89177e-24
-3.66875e-24
8.65579e-24
-2.92772e-24
8.29408e-24
-2.23708e-24
7.79554e-24
-1.61204e-24
7.14695e-24
-1.06852e-24
6.3319e-24
-6.20097e-25
5.33054e-24
-2.82806e-25
4.1216e-24
-7.29568e-26
2.67929e-24
1.01223e-24
-8.57073e-26
-9.26516e-25
-3.31454e-25
-2.43457e-24
-7.24195e-25
-3.73068e-24
-1.2462e-24
-4.81061e-24
-1.87841e-24
-5.7015e-24
-2.6022e-24
-6.42522e-24
-3.39967e-24
-7.00023e-24
-4.25405e-24
-7.44135e-24
-5.15012e-24
-7.76084e-24
-6.07367e-24
-7.96927e-24
-7.01199e-24
-8.0756e-24
-7.95315e-24
-8.08794e-24
-8.88669e-24
-8.01342e-24
-9.80258e-24
-7.85884e-24
-1.06922e-23
-7.63025e-24
-1.1547e-23
-7.33362e-24
-1.236e-23
-6.97439e-24
-1.31241e-23