/*--------------------------------*- C++ -*----------------------------------*\
| =========                 |                                                 |
| \\      /  F ield         | OpenFOAM: The Open Source CFD Toolbox           |
|  \\    /   O peration     | Version:  5.0                                   |
|   \\  /    A nd           | Web:      www.OpenFOAM.org                      |
|    \\/     M anipulation  |                                                 |
\*---------------------------------------------------------------------------*/
FoamFile
{
    version     2.0;
    format      ascii;
    class       surfaceScalarField;
    location    "155";
    object      phi;
}
// * * * * * * * * * * * * * * * * * * * * * * * * * * * * * * * * * * * * * //

dimensions      [0 3 -1 0 0 0 0];

internalField   nonuniform List<scalar> 
19660
(
1.81717e-08
-1.68591e-09
-1.69093e-08
2.15711e-08
-1.99169e-09
-1.40813e-09
2.28149e-08
-1.82954e-09
5.85232e-10
2.28885e-08
-1.55089e-09
1.47681e-09
2.19757e-08
-1.21913e-09
2.13147e-09
2.03757e-08
-8.33574e-10
2.43319e-09
1.81447e-08
-3.56354e-10
2.58697e-09
1.51562e-08
2.11612e-10
2.77651e-09
1.13378e-08
7.58854e-10
3.05914e-09
6.84545e-09
1.11175e-09
3.38016e-09
2.27669e-09
8.51835e-10
3.71648e-09
-1.08018e-09
-7.98195e-10
4.15459e-09
-1.84384e-09
-3.71401e-09
4.47714e-09
-5.64963e-09
3.80552e-09
1.86412e-08
-1.08241e-09
-1.92452e-08
2.29244e-08
-1.92159e-09
-4.35415e-09
2.53516e-08
-2.16223e-09
-2.09528e-09
2.67249e-08
-2.20079e-09
-7.2427e-10
2.71036e-08
-2.06752e-09
4.6887e-10
2.68568e-08
-1.80094e-09
1.21348e-09
2.61759e-08
-1.43258e-09
1.75655e-09
2.50605e-08
-9.74851e-10
2.30127e-09
2.34011e-08
-4.68531e-10
2.88621e-09
2.10653e-08
-4.00567e-11
3.48703e-09
1.7833e-08
-1.14192e-11
4.09497e-09
1.31361e-08
-7.46072e-10
4.64416e-09
6.73103e-09
-2.6318e-09
5.32211e-09
-4.28568e-09
5.36674e-09
1.8834e-08
-1.17002e-09
-1.87468e-08
2.29548e-08
-1.96121e-09
-4.08201e-09
2.53312e-08
-2.29161e-09
-2.24777e-09
2.67183e-08
-2.43732e-09
-1.15138e-09
2.71787e-08
-2.43151e-09
-9.71099e-11
2.7084e-08
-2.29925e-09
5.92344e-10
2.66144e-08
-2.06809e-09
1.10456e-09
2.57406e-08
-1.75354e-09
1.65203e-09
2.43623e-08
-1.37337e-09
2.28269e-09
2.23293e-08
-9.97754e-10
2.99024e-09
1.93244e-08
-7.839e-10
3.77693e-09
1.48875e-08
-9.49568e-10
4.63993e-09
8.25742e-09
-1.66924e-09
5.66691e-09
-1.89025e-09
5.86173e-09
1.87702e-08
-1.21268e-09
-1.87278e-08
2.28688e-08
-2.01291e-09
-4.0476e-09
2.52567e-08
-2.38846e-09
-2.29179e-09
2.66664e-08
-2.57455e-09
-1.27311e-09
2.71493e-08
-2.61099e-09
-3.04096e-10
2.7088e-08
-2.53463e-09
2.96245e-10
2.66449e-08
-2.37262e-09
7.47162e-10
2.57614e-08
-2.13364e-09
1.26325e-09
2.4301e-08
-1.82365e-09
1.91035e-09
2.20775e-08
-1.47878e-09
2.70427e-09
1.87982e-08
-1.18031e-09
3.67547e-09
1.40847e-08
-1.0414e-09
4.80504e-09
7.45252e-09
-1.07058e-09
6.03317e-09
-6.13999e-10
6.17612e-09
1.87038e-08
-1.19069e-09
-1.87261e-08
2.27638e-08
-1.98589e-09
-4.0875e-09
2.51412e-08
-2.3641e-09
-2.40236e-09
2.65437e-08
-2.54757e-09
-1.43e-09
2.70313e-08
-2.58936e-09
-5.0972e-10
2.69915e-08
-2.53251e-09
3.73283e-11
2.65744e-08
-2.40429e-09
4.48476e-10
2.57036e-08
-2.20963e-09
9.4658e-10
2.42155e-08
-1.94777e-09
1.61211e-09
2.18795e-08
-1.63447e-09
2.49165e-09
1.83835e-08
-1.31425e-09
3.62998e-09
1.34307e-08
-1.05052e-09
4.96186e-09
6.87216e-09
-8.01353e-10
6.28924e-09
-9.48668e-11
6.35302e-09
1.86378e-08
-1.14876e-09
-1.86799e-08
2.26471e-08
-1.91063e-09
-4.08493e-09
2.50153e-08
-2.2654e-09
-2.46738e-09
2.64209e-08
-2.42381e-09
-1.52973e-09
2.69171e-08
-2.45083e-09
-6.35045e-10
2.68976e-08
-2.3944e-09
-1.18797e-10
2.65131e-08
-2.27888e-09
2.58983e-10
2.56737e-08
-2.10746e-09
7.37285e-10
2.41947e-08
-1.88058e-09
1.41188e-09
2.18158e-08
-1.60546e-09
2.35005e-09
1.82111e-08
-1.30798e-09
3.59867e-09
1.3129e-08
-1.02281e-09
5.05463e-09
6.58941e-09
-6.93645e-10
6.43214e-09
5.26312e-11
6.44206e-09
1.85744e-08
-1.0792e-09
-1.8644e-08
2.25411e-08
-1.79157e-09
-4.08598e-09
2.49097e-08
-2.10578e-09
-2.5285e-09
2.63226e-08
-2.22681e-09
-1.61013e-09
2.68276e-08
-2.23007e-09
-7.259e-10
2.68254e-08
-2.16725e-09
-2.24949e-10
2.64708e-08
-2.05583e-09
1.31634e-10
2.56634e-08
-1.89923e-09
5.99315e-10
2.42034e-08
-1.70209e-09
1.28178e-09
2.18124e-08
-1.47003e-09
2.25597e-09
1.81534e-08
-1.21877e-09
3.57023e-09
1.29984e-08
-9.65471e-10
5.09823e-09
6.45532e-09
-6.54725e-10
6.50476e-09
2.43903e-11
6.48386e-09
1.85178e-08
-9.68967e-10
-1.8628e-08
2.24502e-08
-1.60746e-09
-4.11652e-09
2.48201e-08
-1.87224e-09
-2.60359e-09
2.62401e-08
-1.95511e-09
-1.69173e-09
2.67504e-08
-1.93847e-09
-8.01862e-10
2.67615e-08
-1.87055e-09
-3.07644e-10
2.64306e-08
-1.7653e-09
4.0642e-11
2.56502e-08
-1.6267e-09
5.08183e-10
2.42093e-08
-1.46024e-09
1.19957e-09
2.18158e-08
-1.27279e-09
2.19689e-09
1.8126e-08
-1.07737e-09
3.54902e-09
1.29257e-08
-8.82971e-10
5.11863e-09
6.37669e-09
-6.45525e-10
6.54066e-09
-1.01267e-10
6.50278e-09
1.84725e-08
-8.19711e-10
-1.86216e-08
2.23747e-08
-1.35706e-09
-4.15247e-09
2.47453e-08
-1.56276e-09
-2.67994e-09
2.6171e-08
-1.60849e-09
-1.77214e-09
2.66863e-08
-1.57884e-09
-8.74805e-10
2.67072e-08
-1.51262e-09
-3.78504e-10
2.63916e-08
-1.4197e-09
-2.96649e-11
2.56299e-08
-1.30417e-09
4.39762e-10
2.42031e-08
-1.1733e-09
1.14053e-09
2.18087e-08
-1.03456e-09
2.15686e-09
1.80971e-08
-9.00799e-10
3.53585e-09
1.2863e-08
-7.80587e-10
5.13278e-09
6.31117e-09
-6.54541e-10
6.56194e-09
-3.00098e-10
6.51054e-09
1.84416e-08
-6.42937e-10
-1.86181e-08
2.23211e-08
-1.06156e-09
-4.17478e-09
2.4695e-08
-1.19884e-09
-2.73752e-09
2.6128e-08
-1.20568e-09
-1.83551e-09
2.66509e-08
-1.16553e-09
-9.35885e-10
2.66781e-08
-1.1062e-09
-4.33189e-10
2.6372e-08
-1.03061e-09
-8.24714e-11
2.5622e-08
-9.43076e-10
3.89485e-10
2.42025e-08
-8.52177e-10
1.09915e-09
2.18043e-08
-7.67439e-10
2.13202e-09
1.80739e-08
-7.02805e-10
3.53335e-09
1.2813e-08
-6.68121e-10
5.14965e-09
6.25637e-09
-6.78856e-10
6.58221e-09
-5.59537e-10
6.51643e-09
1.84353e-08
-4.60157e-10
-1.86178e-08
2.2305e-08
-7.52364e-10
-4.17852e-09
2.4685e-08
-8.15536e-10
-2.76285e-09
2.61288e-08
-7.81521e-10
-1.86752e-09
2.66617e-08
-7.29997e-10
-9.67983e-10
2.66949e-08
-6.76802e-10
-4.62087e-10
2.63948e-08
-6.19647e-10
-1.10222e-10
2.56512e-08
-5.62787e-10
3.6401e-10
2.42334e-08
-5.15062e-10
1.08152e-09
2.18268e-08
-4.87998e-10
2.12806e-09
1.8078e-08
-4.9755e-10
3.54463e-09
1.27951e-08
-5.56459e-10
5.17253e-09
6.2311e-09
-7.17565e-10
6.6041e-09
-8.55225e-10
6.52745e-09
1.84536e-08
-2.91279e-10
-1.86221e-08
2.23298e-08
-4.62514e-10
-4.16553e-09
2.47186e-08
-4.4897e-10
-2.75491e-09
2.61763e-08
-3.72494e-10
-1.86617e-09
2.67221e-08
-3.06779e-10
-9.68474e-10
2.67614e-08
-2.56582e-10
-4.58921e-10
2.6464e-08
-2.1632e-10
-1.0526e-10
2.5721e-08
-1.89899e-10
3.70894e-10
2.42989e-08
-1.86158e-10
1.09407e-09
2.18806e-08
-2.1816e-10
2.14944e-09
1.8114e-08
-3.03724e-10
3.57384e-09
1.28133e-08
-4.57941e-10
5.20348e-09
6.23969e-09
-7.70836e-10
6.62827e-09
-1.1597e-09
6.54483e-09
1.84907e-08
-1.45437e-10
-1.86362e-08
2.23927e-08
-2.08918e-10
-4.15501e-09
2.47905e-08
-1.23165e-10
-2.72302e-09
2.62658e-08
-8.45826e-12
-1.8388e-09
2.68263e-08
7.26593e-11
-9.39303e-10
2.68711e-08
1.23247e-10
-4.24038e-10
2.65731e-08
1.49222e-10
-6.68274e-11
2.58241e-08
1.47785e-10
4.12111e-10
2.43908e-08
1.09955e-10
1.13805e-09
2.19557e-08
2.1252e-11
2.19662e-09
1.81711e-08
-1.38295e-10
3.62013e-09
1.28571e-08
-3.84413e-10
5.24168e-09
6.27278e-09
-8.40096e-10
6.65499e-09
-1.4525e-09
6.56622e-09
1.85543e-08
-2.64942e-11
-1.86729e-08
2.24949e-08
6.61578e-12
-4.15555e-09
2.49068e-08
1.46793e-10
-2.6813e-09
2.63991e-08
2.92601e-10
-1.7927e-09
2.69703e-08
3.89416e-10
-8.87368e-10
2.70183e-08
4.41366e-10
-3.65403e-10
2.67148e-08
4.55713e-10
-2.33529e-12
2.59519e-08
4.30214e-10
4.81178e-10
2.44993e-08
3.54972e-10
1.20838e-09
2.20423e-08
2.14111e-10
2.26489e-09
1.82378e-08
-1.34024e-11
3.68062e-09
1.29126e-08
-3.42649e-10
5.28453e-09
6.31676e-09
-9.2467e-10
6.68159e-09
-1.72433e-09
6.58916e-09
1.86408e-08
7.06895e-11
-1.87377e-08
2.26421e-08
1.76143e-10
-4.17025e-09
2.50757e-08
3.52197e-10
-2.63832e-09
2.6579e-08
5.23425e-10
-1.73362e-09
2.71551e-08
6.3341e-10
-8.19438e-10
2.71981e-08
6.85867e-10
-2.86904e-10
2.68787e-08
6.90478e-10
8.5267e-11
2.60929e-08
6.44052e-10
5.72571e-10
2.46127e-08
5.35974e-10
1.29986e-09
2.21294e-08
3.48746e-10
2.34932e-09
1.83046e-08
6.23996e-11
3.74971e-09
1.29715e-08
-3.36888e-10
5.32823e-09
6.36651e-09
-1.02344e-09
6.7048e-09
-1.96796e-09
6.61061e-09
1.87404e-08
1.48555e-10
-1.8818e-08
2.28269e-08
2.90474e-10
-4.2003e-09
2.52874e-08
4.8624e-10
-2.59399e-09
2.6801e-08
6.73373e-10
-1.66304e-09
2.738e-08
7.91506e-10
-7.36547e-10
2.74134e-08
8.42658e-10
-1.89691e-10
2.70709e-08
8.38961e-10
1.9454e-10
2.62539e-08
7.75115e-10
6.86365e-10
2.47387e-08
6.38846e-10
1.41279e-09
2.22257e-08
4.12761e-10
2.44952e-09
1.83845e-08
8.02233e-11
3.82397e-09
1.30503e-08
-3.70638e-10
5.3685e-09
6.43717e-09
-1.13074e-09
6.72118e-09
-2.15884e-09
6.62839e-09
1.88455e-08
1.97348e-10
-1.88941e-08
2.30249e-08
3.49232e-10
-4.23779e-09
2.55189e-08
5.44151e-10
-2.55144e-09
2.70463e-08
7.33754e-10
-1.58731e-09
2.76295e-08
8.52182e-10
-6.43445e-10
2.76511e-08
8.97907e-10
-7.64856e-11
2.72805e-08
8.85377e-10
3.24487e-10
2.6427e-08
8.06519e-10
8.22404e-10
2.48738e-08
6.48135e-10
1.54416e-09
2.23318e-08
3.94306e-10
2.56069e-09
1.84796e-08
3.35959e-11
3.89905e-09
1.31529e-08
-4.43661e-10
5.4001e-09
6.53006e-09
-1.23491e-09
6.72735e-09
-2.26881e-09
6.64019e-09
1.89492e-08
2.10601e-10
-1.89624e-08
2.32252e-08
3.49295e-10
-4.27576e-09
2.57566e-08
5.24902e-10
-2.51184e-09
2.73004e-08
7.02179e-10
-1.51196e-09
2.78876e-08
8.08982e-10
-5.43705e-10
2.78946e-08
8.42777e-10
4.8348e-11
2.74928e-08
8.18289e-10
4.68959e-10
2.66004e-08
7.27595e-10
9.71344e-10
2.50095e-08
5.56897e-10
1.68219e-09
2.24413e-08
2.92067e-10
2.67036e-09
1.85852e-08
-7.28768e-11
3.96259e-09
1.32718e-08
-5.45181e-10
5.41485e-09
6.63393e-09
-1.31687e-09
6.71983e-09
-2.27895e-09
6.64405e-09
1.90489e-08
1.86342e-10
-1.90246e-08
2.34207e-08
2.88227e-10
-4.31063e-09
2.59923e-08
4.28355e-10
-2.47496e-09
2.75542e-08
5.78465e-10
-1.43797e-09
2.8142e-08
6.65084e-10
-4.43883e-10
2.81288e-08
6.84538e-10
1.71394e-10
2.76944e-08
6.48877e-10
6.03728e-10
2.6764e-08
5.5142e-10
1.10635e-09
2.51384e-08
3.79778e-10
1.80248e-09
2.25486e-08
1.23789e-10
2.75775e-09
1.86961e-08
-2.18716e-10
3.99798e-09
1.33996e-08
-6.53258e-10
5.40426e-09
6.74164e-09
-1.3556e-09
6.69627e-09
-2.17762e-09
6.64011e-09
1.91404e-08
1.28029e-10
-1.90822e-08
2.36015e-08
1.72248e-10
-4.34521e-09
2.62124e-08
2.645e-10
-2.44707e-09
2.77916e-08
3.75324e-10
-1.37618e-09
2.83799e-08
4.3595e-10
-3.59256e-10
2.83468e-08
4.41863e-10
2.75504e-10
2.78804e-08
4.0094e-10
7.13971e-10
2.69149e-08
3.06802e-10
1.20966e-09
2.5259e-08
1.49068e-10
1.88609e-09
2.26543e-08
-7.74441e-11
2.80539e-09
1.8811e-08
-3.7262e-10
3.99658e-09
1.35307e-08
-7.40358e-10
5.36676e-09
6.84719e-09
-1.3321e-09
6.6593e-09
-1.96526e-09
6.63447e-09
1.92225e-08
3.81578e-11
-1.91329e-08
2.37572e-08
1.89416e-11
-4.38169e-09
2.64011e-08
5.63952e-11
-2.43603e-09
2.79956e-08
1.1897e-10
-1.33844e-09
2.8584e-08
1.51769e-10
-3.04575e-10
2.85328e-08
1.47296e-10
3.45297e-10
2.80376e-08
1.08661e-10
7.86999e-10
2.70417e-08
2.93596e-11
1.27262e-09
2.53619e-08
-9.86073e-11
1.92677e-09
2.27493e-08
-2.76683e-10
2.81107e-09
1.89161e-08
-5.03918e-10
3.96369e-09
1.36468e-08
-7.83586e-10
5.31168e-09
6.93321e-09
-1.23777e-09
6.61818e-09
-1.66339e-09
6.63084e-09
1.92849e-08
-7.10422e-11
-1.9176e-08
2.38811e-08
-1.50957e-10
-4.42685e-09
2.65536e-08
-1.68171e-10
-2.44836e-09
2.81572e-08
-1.57055e-10
-1.32807e-09
2.87438e-08
-1.51901e-10
-2.83362e-10
2.86784e-08
-1.62377e-10
3.74431e-10
2.81603e-08
-1.91349e-10
8.17337e-10
2.71408e-08
-2.45584e-10
1.29367e-09
2.54442e-08
-3.30626e-10
1.92772e-09
2.28284e-08
-4.46398e-10
2.78465e-09
1.90032e-08
-5.92869e-10
3.9131e-09
1.37384e-08
-7.7394e-10
5.25404e-09
6.99568e-09
-1.07994e-09
6.58368e-09
-1.30191e-09
6.6336e-09
1.93246e-08
-1.73838e-10
-1.92222e-08
2.39711e-08
-3.21509e-10
-4.4766e-09
2.66695e-08
-3.90448e-10
-2.4767e-09
2.82778e-08
-4.28216e-10
-1.33773e-09
2.88616e-08
-4.49179e-10
-2.8727e-10
2.87882e-08
-4.61126e-10
3.71428e-10
2.82558e-08
-4.74064e-10
8.14277e-10
2.72207e-08
-4.95353e-10
1.28392e-09
2.55138e-08
-5.28724e-10
1.90402e-09
2.28964e-08
-5.74952e-10
2.74496e-09
1.90753e-08
-6.36193e-10
3.86338e-09
1.38078e-08
-7.17225e-10
5.20949e-09
7.03773e-09
-8.75666e-10
6.56444e-09
-9.0858e-10
6.64373e-09
1.93449e-08
-2.69217e-10
-1.92499e-08
2.40234e-08
-4.79081e-10
-4.52175e-09
2.67386e-08
-5.97406e-10
-2.50896e-09
2.83524e-08
-6.80784e-10
-1.36202e-09
2.8938e-08
-7.2526e-10
-3.10325e-10
2.8864e-08
-7.36853e-10
3.48936e-10
2.83271e-08
-7.30968e-10
7.92822e-10
2.72855e-08
-7.1574e-10
1.26098e-09
2.5574e-08
-6.94405e-10
1.87621e-09
2.29551e-08
-6.70005e-10
2.71297e-09
1.91318e-08
-6.471e-10
3.83303e-09
1.3854e-08
-6.31266e-10
5.19066e-09
7.05757e-09
-6.46326e-10
6.56561e-09
-5.13094e-10
6.66139e-09
1.9345e-08
-3.5322e-10
-1.92615e-08
2.40363e-08
-6.16894e-10
-4.55433e-09
2.67579e-08
-7.84262e-10
-2.53559e-09
2.83799e-08
-9.10907e-10
-1.39272e-09
2.89745e-08
-9.77847e-10
-3.42825e-10
2.89084e-08
-9.90563e-10
3.18871e-10
2.83776e-08
-9.67603e-10
7.66497e-10
2.7339e-08
-9.17671e-10
1.23955e-09
2.56281e-08
-8.44097e-10
1.85968e-09
2.30068e-08
-7.5233e-10
2.7026e-09
1.91754e-08
-6.49136e-10
3.83237e-09
1.38817e-08
-5.40929e-10
5.20224e-09
7.06349e-09
-4.16666e-10
6.58718e-09
-1.34895e-10
6.68465e-09
1.93161e-08
-4.2867e-10
-1.92411e-08
2.39959e-08
-7.43699e-10
-4.55387e-09
2.67186e-08
-9.59511e-10
-2.54831e-09
2.8353e-08
-1.12858e-09
-1.41765e-09
2.89646e-08
-1.21861e-09
-3.71687e-10
2.89172e-08
-1.23537e-09
2.91336e-10
2.8404e-08
-1.1997e-09
7.44427e-10
2.73786e-08
-1.12026e-09
1.22708e-09
2.56744e-08
-1.00025e-09
1.85948e-09
2.30514e-08
-8.46363e-10
2.7162e-09
1.92081e-08
-6.67348e-10
3.86067e-09
1.38955e-08
-4.70203e-10
5.24091e-09
7.0633e-09
-2.10865e-10
6.62525e-09
2.1867e-10
6.70919e-09
1.92556e-08
-5.08659e-10
-1.91761e-08
2.38994e-08
-8.72692e-10
-4.51566e-09
2.66174e-08
-1.13355e-09
-2.54481e-09
2.82665e-08
-1.34266e-09
-1.43592e-09
2.89023e-08
-1.45649e-09
-3.98811e-10
2.88845e-08
-1.4803e-09
2.61901e-10
2.84004e-08
-1.43684e-09
7.20454e-10
2.73987e-08
-1.33432e-09
1.21506e-09
2.57084e-08
-1.17526e-09
1.86464e-09
2.30859e-08
-9.65975e-10
2.74145e-09
1.92289e-08
-7.16903e-10
3.90602e-09
1.38956e-08
-4.35138e-10
5.29743e-09
7.05654e-09
-4.76375e-11
6.67499e-09
5.42003e-10
6.73279e-09
1.91744e-08
-5.80577e-10
-1.91028e-08
2.37615e-08
-9.93579e-10
-4.46704e-09
2.64672e-08
-1.2976e-09
-2.54254e-09
2.81279e-08
-1.54284e-09
-1.4613e-09
2.87898e-08
-1.67982e-09
-4.3941e-10
2.88087e-08
-1.71264e-09
2.12652e-10
2.83627e-08
-1.66599e-09
6.74439e-10
2.73935e-08
-1.5474e-09
1.1818e-09
2.57239e-08
-1.35855e-09
1.85245e-09
2.31052e-08
-1.1043e-09
2.7566e-09
1.9233e-08
-7.9555e-10
3.95047e-09
1.38762e-08
-4.39148e-10
5.36031e-09
7.03487e-09
6.13226e-11
6.73177e-09
8.17288e-10
6.75927e-09
1.90787e-08
-6.29777e-10
-1.90298e-08
2.35891e-08
-1.0854e-09
-4.4193e-09
2.62747e-08
-1.42569e-09
-2.55829e-09
2.79421e-08
-1.70138e-09
-1.50971e-09
2.86304e-08
-1.85884e-09
-5.10049e-10
2.86911e-08
-1.90073e-09
1.26714e-10
2.82903e-08
-1.85554e-09
5.89716e-10
2.73608e-08
-1.72904e-09
1.11079e-09
2.57183e-08
-1.5222e-09
1.80574e-09
2.31073e-08
-1.23816e-09
2.74459e-09
1.92191e-08
-8.86682e-10
3.97904e-09
1.38352e-08
-4.74559e-10
5.41897e-09
6.99276e-09
1.12974e-10
6.79036e-09
1.01845e-09
6.79135e-09
1.89735e-08
-6.54226e-10
-1.89494e-08
2.33956e-08
-1.13956e-09
-4.3686e-09
2.60553e-08
-1.50469e-09
-2.58141e-09
2.77276e-08
-1.79738e-09
-1.57711e-09
2.84423e-08
-1.96574e-09
-6.08533e-10
2.85466e-08
-2.01561e-09
9.9236e-12
2.81947e-08
-1.97374e-09
4.69473e-10
2.73096e-08
-1.84613e-09
1.00176e-09
2.56997e-08
-1.63395e-09
1.72131e-09
2.31007e-08
-1.33868e-09
2.69925e-09
1.91969e-08
-9.66527e-10
3.9833e-09
1.37807e-08
-5.2364e-10
5.46487e-09
6.93106e-09
1.15977e-10
6.84614e-09
1.12445e-09
6.82481e-09
1.88643e-08
-6.56424e-10
-1.88623e-08
2.31975e-08
-1.15858e-09
-4.31478e-09
2.58337e-08
-1.53477e-09
-2.60676e-09
2.75127e-08
-1.82289e-09
-1.65415e-09
2.82466e-08
-1.98539e-09
-7.15036e-10
2.83878e-08
-2.0362e-09
-1.21262e-10
2.80854e-08
-1.99669e-09
3.2473e-10
2.72481e-08
-1.87381e-09
8.64416e-10
2.56756e-08
-1.66833e-09
1.60641e-09
2.30935e-08
-1.38057e-09
2.62348e-09
1.91775e-08
-1.01202e-09
3.96102e-09
1.37278e-08
-5.66477e-10
5.492e-09
6.86559e-09
8.3873e-11
6.89371e-09
1.13359e-09
6.85621e-09
1.87571e-08
-6.4069e-10
-1.87729e-08
2.30071e-08
-1.14224e-09
-4.26676e-09
2.56302e-08
-1.50636e-09
-2.65197e-09
2.73166e-08
-1.77029e-09
-1.73965e-09
2.80681e-08
-1.91202e-09
-8.25411e-10
2.82424e-08
-1.95359e-09
-2.57547e-10
2.79855e-08
-1.91381e-09
1.73468e-10
2.71947e-08
-1.79961e-09
7.15982e-10
2.56614e-08
-1.61117e-09
1.47559e-09
2.30991e-08
-1.34659e-09
2.52776e-09
1.91752e-08
-1.00356e-09
3.91499e-09
1.36936e-08
-5.82898e-10
5.49751e-09
6.81114e-09
3.74519e-11
6.92846e-09
1.0647e-09
6.87995e-09
1.86622e-08
-6.01183e-10
-1.87017e-08
2.28456e-08
-1.07773e-09
-4.24788e-09
2.54614e-08
-1.4056e-09
-2.71673e-09
2.7154e-08
-1.62595e-09
-1.83715e-09
2.79194e-08
-1.73424e-09
-9.43439e-10
2.81204e-08
-1.76002e-09
-3.9488e-10
2.79012e-08
-1.7183e-09
2.34134e-11
2.71502e-08
-1.61471e-09
5.65843e-10
2.56525e-08
-1.45023e-09
1.33665e-09
2.31104e-08
-1.22088e-09
2.41624e-09
1.9182e-08
-9.22719e-10
3.84751e-09
1.36715e-08
-5.53119e-10
5.48081e-09
6.76417e-09
-1.72933e-12
6.94678e-09
9.35098e-10
6.89409e-09
1.85909e-08
-5.21305e-10
-1.86703e-08
2.27249e-08
-9.36848e-10
-4.27447e-09
2.53315e-08
-1.20749e-09
-2.80436e-09
2.7026e-08
-1.36832e-09
-1.95186e-09
2.77978e-08
-1.4352e-09
-1.07044e-09
2.80107e-08
-1.44114e-09
-5.31367e-10
2.78134e-08
-1.39792e-09
-1.2248e-10
2.70921e-08
-1.30822e-09
4.15482e-10
2.56232e-08
-1.17408e-09
1.19355e-09
2.30991e-08
-9.91035e-10
2.29519e-09
1.91679e-08
-7.55077e-10
3.7648e-09
1.36328e-08
-4.61983e-10
5.44536e-09
6.70775e-09
-2.05081e-11
6.94562e-09
7.47557e-10
6.89632e-09
1.85472e-08
-3.85161e-10
-1.86826e-08
2.26425e-08
-7.0003e-10
-4.33117e-09
2.52364e-08
-8.92242e-10
-2.90832e-09
2.69248e-08
-9.85402e-10
-2.07034e-09
2.76928e-08
-1.01183e-09
-1.19024e-09
2.79057e-08
-1.00158e-09
-6.50959e-10
2.77169e-08
-9.60914e-10
-2.46452e-10
2.70137e-08
-8.90601e-10
2.87601e-10
2.55647e-08
-7.9299e-10
1.07039e-09
2.30529e-08
-6.65783e-10
2.18924e-09
1.91183e-08
-5.06276e-10
3.68878e-09
1.35659e-08
-3.11748e-10
5.40541e-09
6.63957e-09
-1.89114e-11
6.92845e-09
5.0203e-10
6.88692e-09
1.85269e-08
-2.02696e-10
-1.87085e-08
2.25891e-08
-3.84031e-10
-4.3769e-09
2.51677e-08
-4.786e-10
-2.99099e-09
2.68451e-08
-5.03459e-10
-2.15792e-09
2.76018e-08
-4.98494e-10
-1.26826e-09
2.78041e-08
-4.80421e-10
-7.21173e-10
2.76118e-08
-4.48816e-10
-3.16887e-10
2.69153e-08
-4.04396e-10
2.13718e-10
2.5476e-08
-3.49725e-10
1.00001e-09
2.29685e-08
-2.85389e-10
2.13145e-09
1.90292e-08
-2.1191e-10
3.64957e-09
1.34692e-08
-1.3038e-10
5.3835e-09
6.56184e-09
-1.31218e-11
6.90681e-09
1.94777e-10
6.8715e-09
1.85165e-08
-2.65606e-11
-1.86918e-08
2.25446e-08
-4.83003e-11
-4.36261e-09
2.51062e-08
-2.51284e-11
-3.01389e-09
2.67745e-08
1.02022e-11
-2.18052e-09
2.75173e-08
3.83345e-11
-1.27768e-09
2.77023e-08
5.94747e-11
-7.22309e-10
2.74985e-08
7.73918e-11
-3.19152e-10
2.6801e-08
8.98084e-11
2.07448e-10
2.53645e-08
9.44142e-11
9.97129e-10
2.28569e-08
8.9272e-11
2.13814e-09
1.89164e-08
6.98373e-11
3.66411e-09
1.33648e-08
3.13615e-11
5.39541e-09
6.49945e-09
-3.80809e-11
6.89619e-09
-1.63461e-10
6.86028e-09
1.84927e-08
1.0663e-10
-1.86254e-08
2.24985e-08
2.59123e-10
-4.31251e-09
2.50433e-08
4.11656e-10
-2.98096e-09
2.66968e-08
5.11035e-10
-2.15341e-09
2.74264e-08
5.63468e-10
-1.25326e-09
2.76015e-08
5.87353e-10
-7.00989e-10
2.73946e-08
5.87798e-10
-3.00667e-10
2.66994e-08
5.61798e-10
2.26988e-10
2.52677e-08
5.08948e-10
1.02151e-09
2.27674e-08
4.25442e-10
2.16893e-09
1.88418e-08
3.03838e-10
3.69662e-09
1.33181e-08
1.4043e-10
5.41974e-09
6.49634e-09
-1.13115e-10
6.90215e-09
-5.25346e-10
6.86055e-09
1.8477e-08
2.33245e-10
-1.86035e-08
2.2497e-08
5.38147e-10
-4.29894e-09
2.50437e-08
7.98226e-10
-2.93314e-09
2.66974e-08
9.68924e-10
-2.11135e-09
2.74367e-08
1.05599e-09
-1.23134e-09
2.76284e-08
1.08829e-09
-6.91592e-10
2.74352e-08
1.07243e-09
-2.89676e-10
2.67435e-08
1.00876e-09
2.47094e-10
2.53107e-08
8.98928e-10
1.04581e-09
2.28134e-08
7.35787e-10
2.19031e-09
1.88977e-08
5.11152e-10
3.71189e-09
1.33867e-08
2.26255e-10
5.429e-09
6.55796e-09
-1.96152e-10
6.91577e-09
-8.34503e-10
6.86888e-09
1.85214e-08
3.73065e-10
-1.86612e-08
2.25933e-08
7.68742e-10
-4.30269e-09
2.51681e-08
1.09015e-09
-2.86689e-09
2.68502e-08
1.31944e-09
-2.03267e-09
2.76206e-08
1.44559e-09
-1.16005e-09
2.78385e-08
1.49278e-09
-6.22093e-10
2.76526e-08
1.47114e-09
-2.12093e-10
2.69453e-08
1.38506e-09
3.32103e-10
2.54869e-08
1.23395e-09
1.1248e-09
2.29664e-08
1.00914e-09
2.24885e-09
1.90325e-08
7.02285e-10
3.74468e-09
1.35033e-08
3.16805e-10
5.44083e-09
6.62683e-09
-2.47208e-10
6.93005e-09
-1.07689e-09
6.87039e-09
1.86295e-08
4.789e-10
-1.87352e-08
2.27881e-08
9.001e-10
-4.28974e-09
2.54052e-08
1.24141e-09
-2.76819e-09
2.71153e-08
1.50984e-09
-1.90048e-09
2.79014e-08
1.6692e-09
-1.00963e-09
2.81172e-08
1.73194e-09
-4.54786e-10
2.79059e-08
1.7145e-09
-3.17813e-11
2.71553e-08
1.62238e-09
5.13679e-10
2.56474e-08
1.45165e-09
1.29066e-09
2.30799e-08
1.19251e-09
2.38474e-09
1.91099e-08
8.3658e-10
3.83656e-09
1.35581e-08
3.85437e-10
5.48418e-09
6.65423e-09
-2.83089e-10
6.94119e-09
-1.27885e-09
6.85689e-09
1.87564e-08
5.08635e-10
-1.87856e-08
2.30098e-08
9.15814e-10
-4.26837e-09
2.56545e-08
1.26122e-09
-2.66387e-09
2.73654e-08
1.55279e-09
-1.75333e-09
2.81327e-08
1.73401e-09
-8.3158e-10
2.83099e-08
1.81022e-09
-2.55087e-10
2.80477e-08
1.79993e-09
1.77178e-10
2.72439e-08
1.70645e-09
7.2006e-10
2.5682e-08
1.52498e-09
1.4889e-09
2.30679e-08
1.2475e-09
2.55935e-09
1.90731e-08
8.67304e-10
3.9645e-09
1.35283e-08
3.8315e-10
5.54755e-09
6.65351e-09
-3.4925e-10
6.94171e-09
-1.4601e-09
6.83517e-09
1.88658e-08
4.92593e-10
-1.88492e-08
2.31995e-08
8.7523e-10
-4.2922e-09
2.58507e-08
1.21924e-09
-2.60824e-09
2.75397e-08
1.51944e-09
-1.65473e-09
2.82737e-08
1.70782e-09
-7.06872e-10
2.8409e-08
1.78465e-09
-1.08923e-10
2.80985e-08
1.77117e-09
3.39932e-10
2.72453e-08
1.66913e-09
8.91225e-10
2.56366e-08
1.47456e-09
1.65956e-09
2.29916e-08
1.18131e-09
2.71163e-09
1.89979e-08
7.87817e-10
4.07353e-09
1.34941e-08
2.93773e-10
5.59361e-09
6.67975e-09
-4.59516e-10
6.92507e-09
-1.59607e-09
6.81598e-09
1.89647e-08
4.75895e-10
-1.89477e-08
2.3373e-08
8.35374e-10
-4.36764e-09
2.60314e-08
1.16378e-09
-2.60212e-09
2.77027e-08
1.45181e-09
-1.60275e-09
2.8414e-08
1.62901e-09
-6.31637e-10
2.85181e-08
1.69147e-09
-1.00844e-11
2.81655e-08
1.66385e-09
4.6079e-10
2.72671e-08
1.54756e-09
1.02067e-09
2.56205e-08
1.33861e-09
1.78316e-09
2.29586e-08
1.03389e-09
2.80984e-09
1.89831e-08
6.38406e-10
4.12544e-09
1.35301e-08
1.55331e-10
5.59173e-09
6.75663e-09
-5.73752e-10
6.88806e-09
-1.6365e-09
6.7972e-09
1.90703e-08
4.57939e-10
-1.90523e-08
2.3565e-08
7.89039e-10
-4.44812e-09
2.62493e-08
1.08288e-09
-2.60313e-09
2.79233e-08
1.33772e-09
-1.55951e-09
2.86227e-08
1.48523e-09
-5.55237e-10
2.86947e-08
1.52624e-09
9.37203e-11
2.82954e-08
1.4822e-09
5.81458e-10
2.73502e-08
1.35524e-09
1.13788e-09
2.56683e-08
1.14207e-09
1.87885e-09
2.29935e-08
8.43218e-10
2.86587e-09
1.90366e-08
4.67935e-10
4.12765e-09
1.36225e-08
2.14992e-11
5.5481e-09
6.85363e-09
-6.40123e-10
6.83535e-09
-1.55473e-09
6.77183e-09
1.91834e-08
4.12411e-10
-1.91383e-08
2.37755e-08
6.97261e-10
-4.50076e-09
2.64996e-08
9.40054e-10
-2.58164e-09
2.81857e-08
1.1484e-09
-1.49704e-09
2.88712e-08
1.26049e-09
-4.60944e-10
2.89027e-08
1.28114e-09
2.13448e-10
2.84536e-08
1.22795e-09
7.03224e-10
2.74613e-08
1.10314e-09
1.24424e-09
2.57444e-08
9.04779e-10
1.95415e-09
2.30561e-08
6.36418e-10
2.89501e-09
1.91125e-08
3.08786e-10
4.10268e-09
1.37229e-08
-7.35256e-11
5.48435e-09
6.93924e-09
-6.32421e-10
6.7756e-09
-1.35774e-09
6.74201e-09
1.92904e-08
3.26949e-10
-1.92056e-08
2.39724e-08
5.47533e-10
-4.53328e-09
2.67306e-08
7.35447e-10
-2.55442e-09
2.84216e-08
8.92405e-10
-1.43581e-09
2.9088e-08
9.71057e-10
-3.77853e-10
2.90784e-08
9.77257e-10
3.12633e-10
2.85819e-08
9.25842e-10
7.97803e-10
2.75467e-08
8.17852e-10
1.31965e-09
2.57991e-08
6.53326e-10
1.99838e-09
2.30992e-08
4.37747e-10
2.89801e-09
1.91644e-08
1.80652e-10
4.06219e-09
1.37893e-08
-1.1568e-10
5.41653e-09
6.98685e-09
-5.49339e-10
6.7184e-09
-1.08525e-09
6.71385e-09
1.93789e-08
2.11758e-10
-1.92645e-08
2.41235e-08
3.59625e-10
-4.55806e-09
2.68979e-08
4.98842e-10
-2.53915e-09
2.85832e-08
6.03469e-10
-1.39761e-09
2.92262e-08
6.52658e-10
-3.2596e-10
2.91815e-08
6.53091e-10
3.67449e-10
2.8647e-08
6.12866e-10
8.4601e-10
2.75791e-08
5.33111e-10
1.35122e-09
2.58104e-08
4.16169e-10
2.00458e-09
2.31056e-08
2.67428e-10
2.87392e-09
1.91817e-08
9.34107e-11
4.00994e-09
1.3819e-08
-1.06031e-10
5.35173e-09
7.00345e-09
-4.04905e-10
6.66967e-09
-7.78463e-10
6.69595e-09
1.94662e-08
2.09313e-11
-1.92764e-08
2.42007e-08
2.09534e-10
-4.58594e-09
2.69771e-08
2.68485e-10
-2.54768e-09
2.86601e-08
2.97349e-10
-1.37843e-09
2.92868e-08
3.22205e-10
-2.97896e-10
2.92206e-08
3.25114e-10
3.92422e-10
2.86646e-08
3.0197e-10
8.65159e-10
2.75807e-08
2.57975e-10
1.35744e-09
2.58058e-08
1.97223e-10
1.99223e-09
2.31078e-08
1.22694e-10
2.84129e-09
1.92015e-08
3.71588e-11
3.9611e-09
1.38543e-08
-6.09793e-11
5.3005e-09
7.02802e-09
-2.18556e-10
6.63824e-09
-4.48619e-10
6.69734e-09
1.94158e-08
-1.93954e-08
2.43095e-08
-4.6848e-09
2.71321e-08
-2.55482e-09
2.87823e-08
-1.3535e-09
2.93813e-08
-2.77607e-10
2.93025e-08
4.03159e-10
2.87351e-08
8.68602e-10
2.76394e-08
1.35299e-09
2.58589e-08
1.97704e-09
2.31667e-08
2.81428e-09
1.92795e-08
3.92372e-09
1.39581e-08
5.25968e-09
7.13186e-09
6.607e-09
6.6829e-09
7.10308e-09
-1.47646e-09
-2.25367e-08
1.10357e-08
-1.4323e-09
-3.90973e-09
1.27585e-08
-1.29677e-09
1.57951e-10
1.39706e-08
-1.12052e-09
1.38405e-09
1.45255e-08
-7.94199e-10
2.36971e-09
1.42649e-08
-3.71894e-10
3.06472e-09
1.31114e-08
1.66274e-10
3.57337e-09
1.09935e-08
8.08878e-10
4.08465e-09
7.95621e-09
1.39964e-09
4.69602e-09
4.23807e-09
1.73533e-09
5.36218e-09
4.26061e-10
1.41802e-09
6.10963e-09
-2.16294e-09
-3.68819e-10
7.11148e-09
-2.29022e-09
-3.17228e-09
7.7758e-09
-4.93222e-09
6.44712e-09
6.46041e-09
-1.94746e-09
-2.52356e-08
1.04431e-08
-2.38088e-09
-7.39087e-09
1.25924e-08
-2.38278e-09
-3.16121e-09
1.44714e-08
-2.25989e-09
-1.46644e-09
1.61042e-08
-2.00025e-09
3.98265e-11
1.72793e-08
-1.62732e-09
1.29195e-09
1.79704e-08
-1.14456e-09
2.37462e-09
1.81292e-08
-5.48406e-10
3.49827e-09
1.75916e-08
1.12839e-10
4.70932e-09
1.62297e-08
6.52406e-10
5.93058e-09
1.39682e-08
6.42449e-10
7.13079e-09
1.02911e-08
-2.33874e-10
8.18478e-09
5.15419e-09
-2.21029e-09
9.49546e-09
-3.8484e-09
9.43667e-09
6.31656e-09
-2.29968e-09
-2.4712e-08
1.00327e-08
-3.01716e-09
-7.1642e-09
1.20085e-08
-3.03066e-09
-3.57814e-09
1.37232e-08
-2.82457e-09
-2.30367e-09
1.52065e-08
-2.54369e-09
-1.03903e-09
1.63399e-08
-2.22939e-09
5.92127e-11
1.71003e-08
-1.8753e-09
1.07338e-09
1.7479e-08
-1.44891e-09
2.17264e-09
1.74186e-08
-9.58262e-10
3.41311e-09
1.67411e-08
-4.65266e-10
4.78442e-09
1.50374e-08
-1.67495e-10
6.28966e-09
1.1851e-08
-3.51459e-10
7.94278e-09
6.5801e-09
-1.20135e-09
9.92774e-09
-1.58807e-09
1.01812e-08
6.21604e-09
-2.45489e-09
-2.47895e-08
9.7902e-09
-3.30778e-09
-7.33316e-09
1.16786e-08
-3.31191e-09
-3.90097e-09
1.33265e-08
-3.02607e-09
-2.72147e-09
1.47264e-08
-2.68189e-09
-1.56748e-09
1.57382e-08
-2.35704e-09
-5.89296e-10
1.63722e-08
-2.03975e-09
2.76439e-10
1.66288e-08
-1.69223e-09
1.24905e-09
1.64244e-08
-1.28675e-09
2.44259e-09
1.55778e-08
-8.4795e-10
3.93306e-09
1.37848e-08
-4.90132e-10
5.79065e-09
1.06276e-08
-3.94344e-10
8.00452e-09
5.6266e-09
-5.95831e-10
1.0428e-08
-3.74063e-10
1.05886e-08
6.12058e-09
-2.46763e-09
-2.48346e-08
9.58457e-09
-3.348e-09
-7.51287e-09
1.14064e-08
-3.3209e-09
-4.21681e-09
1.29971e-08
-2.96738e-09
-3.08085e-09
1.43289e-08
-2.55795e-09
-1.96681e-09
1.52516e-08
-2.19642e-09
-1.04698e-09
1.57985e-08
-1.87598e-09
-2.62918e-10
1.59934e-08
-1.56035e-09
6.19406e-10
1.57485e-08
-1.21412e-09
1.78433e-09
1.48491e-08
-8.49743e-10
3.39287e-09
1.29575e-08
-5.39729e-10
5.57123e-09
9.71318e-09
-3.91385e-10
8.20335e-09
4.93627e-09
-3.53323e-10
1.08237e-08
1.08181e-10
1.08071e-08
6.02914e-09
-2.38002e-09
-2.47972e-08
9.39818e-09
-3.21505e-09
-7.58807e-09
1.1179e-08
-3.13035e-09
-4.43993e-09
1.27401e-08
-2.71827e-09
-3.34097e-09
1.40453e-08
-2.26427e-09
-2.23473e-09
1.49334e-08
-1.87489e-09
-1.32886e-09
1.54389e-08
-1.54647e-09
-5.76206e-10
1.56139e-08
-1.25075e-09
2.52852e-10
1.53726e-08
-9.58955e-10
1.39847e-09
1.44725e-08
-6.84976e-10
3.08601e-09
1.25415e-08
-4.76996e-10
5.46778e-09
9.24737e-09
-3.80076e-10
8.33826e-09
4.577e-09
-2.89097e-10
1.10391e-08
2.26315e-10
1.09012e-08
5.95528e-09
-2.20933e-09
-2.47703e-08
9.24848e-09
-2.94156e-09
-7.65332e-09
1.09943e-08
-2.78848e-09
-4.61683e-09
1.25354e-08
-2.34025e-09
-3.52977e-09
1.38273e-08
-1.87273e-09
-2.40966e-09
1.47016e-08
-1.48081e-09
-1.49331e-09
1.51947e-08
-1.15897e-09
-7.48545e-10
1.53753e-08
-8.8807e-10
5.67922e-11
1.51577e-08
-6.5127e-10
1.19281e-09
1.42755e-08
-4.67506e-10
2.92194e-09
1.23309e-08
-3.68887e-10
5.40822e-09
9.00795e-09
-3.56549e-10
8.39917e-09
4.39077e-09
-3.00884e-10
1.11353e-08
1.7199e-10
1.09295e-08
5.89309e-09
-1.95666e-09
-2.47738e-08
9.13228e-09
-2.53334e-09
-7.76405e-09
1.08462e-08
-2.32647e-09
-4.77962e-09
1.23702e-08
-1.8732e-09
-3.6828e-09
1.36498e-08
-1.42377e-09
-2.53013e-09
1.45147e-08
-1.0559e-09
-1.59687e-09
1.50068e-08
-7.60359e-10
-8.49143e-10
1.52019e-08
-5.2536e-10
-4.83105e-11
1.50103e-08
-3.44871e-10
1.08637e-09
1.41476e-08
-2.42216e-10
2.83614e-09
1.21991e-08
-2.41237e-10
5.37186e-09
8.85966e-09
-3.18933e-10
8.42267e-09
4.27225e-09
-3.44088e-10
1.11735e-08
1.78641e-11
1.09299e-08
5.84481e-09
-1.63016e-09
-2.47928e-08
9.04323e-09
-2.00999e-09
-7.87384e-09
1.07285e-08
-1.75936e-09
-4.93184e-09
1.22367e-08
-1.32882e-09