/*--------------------------------*- C++ -*----------------------------------*\
| =========                 |                                                 |
| \\      /  F ield         | OpenFOAM: The Open Source CFD Toolbox           |
|  \\    /   O peration     | Version:  5.0                                   |
|   \\  /    A nd           | Web:      www.OpenFOAM.org                      |
|    \\/     M anipulation  |                                                 |
\*---------------------------------------------------------------------------*/
FoamFile
{
    version     2.0;
    format      ascii;
    class       surfaceScalarField;
    location    "378";
    object      phi;
}
// * * * * * * * * * * * * * * * * * * * * * * * * * * * * * * * * * * * * * //

dimensions      [0 3 -1 0 0 0 0];

internalField   nonuniform List<scalar> 
3052
(
3.59584e-24
-4.37057e-24
1.33447e-23
-9.74414e-24
2.85401e-23
-1.52287e-23
4.73035e-23
-1.88049e-23
6.90788e-23
-2.18134e-23
9.35883e-23
-2.4541e-23
1.20099e-22
-2.65373e-23
1.48166e-22
-2.80907e-23
1.77419e-22
-2.92738e-23
2.07433e-22
-3.00332e-23
2.37823e-22
-3.04077e-23
2.68256e-22
-3.04497e-23
2.98418e-22
-3.01779e-23
3.28004e-22
-2.96003e-23
3.56737e-22
-2.87474e-23
3.84366e-22
-2.76411e-23
4.1065e-22
-2.62965e-23
4.35376e-22
-2.47369e-23
4.58346e-22
-2.29804e-23
4.79386e-22
-2.1049e-23
4.98336e-22
-1.89582e-23
5.15059e-22
-1.67307e-23
5.29436e-22
-1.4383e-23
5.41316e-22
-1.18854e-23
5.50694e-22
-9.38229e-24
5.57564e-22
-6.87279e-24
5.61735e-22
-4.17317e-24
5.63128e-22
-1.3929e-24
5.61774e-22
1.35575e-24
5.57645e-22
4.13244e-24
5.50814e-22
6.83544e-24
5.41474e-22
9.34667e-24
5.29628e-22
1.1854e-23
5.15285e-22
1.43509e-23
4.98595e-22
1.67e-23
4.79681e-22
1.89254e-23
4.58668e-22
2.10244e-23
4.35727e-22
2.29529e-23
4.11025e-22
2.47152e-23
3.84761e-22
2.62775e-23
3.57151e-22
2.76239e-23
3.28436e-22
2.87288e-23
2.98862e-22
2.95884e-23
2.68712e-22
3.01651e-23
2.38281e-22
3.04469e-23
2.07893e-22
3.04045e-23
1.77892e-22
3.00191e-23
1.4865e-22
2.92605e-23
1.2056e-22
2.81107e-23
9.40606e-23
2.65192e-23
6.96307e-23
2.44517e-23
4.77843e-23
2.18701e-23
2.90816e-23
1.87247e-23
1.41962e-23
1.49086e-23
4.25137e-24
9.9652e-24
4.25403e-24
3.76684e-24
-8.12445e-24
1.27671e-23
-1.88291e-23
2.58945e-23
-2.84768e-23
4.30103e-23
-3.60433e-23
6.33429e-23
-4.22536e-23
8.5964e-23
-4.72546e-23
1.10573e-22
-5.12265e-23
1.3673e-22
-5.43182e-23
1.63948e-22
-5.65544e-23
1.91868e-22
-5.80121e-23
2.20167e-22
-5.87601e-23
2.48509e-22
-5.8842e-23
2.76583e-22
-5.82995e-23
3.04121e-22
-5.7182e-23
3.30866e-22
-5.55337e-23
3.56575e-22
-5.33892e-23
3.81033e-22
-5.07893e-23
4.04037e-22
-4.77741e-23
4.25406e-22
-4.43784e-23
4.4497e-22
-4.06397e-23
4.62584e-22
-3.65946e-23
4.78114e-22
-3.2281e-23
4.91448e-22
-2.77334e-23
5.02538e-22
-2.29896e-23
5.11326e-22
-1.81809e-23
5.17694e-22
-1.32481e-23
5.21587e-22
-8.06782e-24
5.22915e-22
-2.71813e-24
5.21626e-22
2.65153e-24
5.17767e-22
8.00412e-24
5.11429e-22
1.31898e-23
5.02673e-22
1.8123e-23
4.91619e-22
2.29327e-23
4.78319e-22
2.76782e-23
4.62818e-22
3.22317e-23
4.45231e-22
3.65461e-23
4.25695e-22
4.05967e-23
4.04349e-22
4.43371e-23
3.81365e-22
4.7738e-23
3.56928e-22
5.07562e-23
3.31232e-22
5.33615e-23
3.04496e-22
5.55095e-23
2.76965e-22
5.71656e-23
2.48893e-22
5.82851e-23
2.2056e-22
5.88314e-23
1.92262e-22
5.87551e-23
1.64326e-22
5.80131e-23
1.37098e-22
5.65503e-23
1.10959e-22
5.43107e-23
8.63222e-23
5.12255e-23
6.36155e-23
4.72289e-23
4.33516e-23
4.22018e-23
2.61468e-23
3.60026e-23
1.269e-23
2.84297e-23
3.61341e-24
1.91034e-23
7.8707e-24
2.68436e-24
-1.08311e-23
1.07565e-23
-2.69643e-23
2.28641e-23
-4.06716e-23
3.85477e-23
-5.18203e-23
5.70569e-23
-6.0851e-23
7.79737e-23
-6.82489e-23
1.00756e-22
-7.40766e-23
1.24938e-22
-7.85597e-23
1.50148e-22
-8.18174e-23
1.76032e-22
-8.39447e-23
2.02253e-22
-8.50247e-23
2.28504e-22
-8.51344e-23
2.54518e-22
-8.43515e-23
2.80032e-22
-8.27316e-23
3.04803e-22
-8.03371e-23
3.28613e-22
-7.72287e-23
3.51261e-22
-7.3465e-23
3.72558e-22
-6.90958e-23
3.92338e-22
-6.41801e-23
4.10449e-22
-5.87694e-23
4.26756e-22
-5.29182e-23
4.41138e-22
-4.66774e-23
4.535e-22
-4.01061e-23
4.63769e-22
-3.32679e-23
4.71829e-22
-2.62465e-23
4.77597e-22
-1.90192e-23
4.81078e-22
-1.1549e-23
4.82259e-22
-3.89568e-24
4.81107e-22
3.80922e-24
4.77657e-22
1.14632e-23
4.71922e-22
1.89367e-23
4.63892e-22
2.61675e-23
4.53649e-22
3.31931e-23
4.41314e-22
4.00332e-23
4.2696e-22
4.66081e-23
4.10678e-22
5.28531e-23
3.92591e-22
5.87104e-23
3.72831e-22
6.41258e-23
3.51552e-22
6.90472e-23
3.28918e-22
7.34223e-23
3.05121e-22
7.71923e-23
2.8036e-22
8.03063e-23
2.54857e-22
8.2707e-23
2.28846e-22
8.4336e-23
2.02592e-22
8.51277e-23
1.76372e-22
8.50218e-23
1.50488e-22
8.39447e-23
1.25271e-22
8.18184e-23
1.01075e-22
7.85654e-23
7.82769e-23
7.40795e-23
5.73435e-23
6.82206e-23
3.87504e-23
6.08592e-23
2.30197e-23
5.1789e-23
1.08224e-23
4.06972e-23
2.90322e-24
2.70642e-23
1.07767e-23
2.44145e-24
-1.32756e-23
9.41606e-24
-3.39818e-23
2.01896e-23
-5.15065e-23
3.43022e-23
-6.60021e-23
5.121e-23
-7.78258e-23
7.02794e-23
-8.73795e-23
9.1123e-23
-9.49744e-23
1.13318e-22
-1.00802e-22
1.36477e-22
-1.05018e-22
1.60265e-22
-1.07771e-22
1.84382e-22
-1.09176e-22
2.0854e-22
-1.09323e-22
2.32471e-22
-1.08311e-22
2.55941e-22
-1.06227e-22
2.78729e-22
-1.03149e-22
3.00632e-22
-9.91525e-23
3.2146e-22
-9.43119e-23
3.41047e-22
-8.86991e-23
3.59236e-22
-8.23838e-23
3.75889e-22
-7.54344e-23
3.9088e-22
-6.79199e-23
4.04104e-22
-5.991e-23
4.15466e-22
-5.14744e-23
4.2488e-22
-4.26852e-23
4.32243e-22
-3.3612e-23
4.37501e-22
-2.42779e-23
4.40654e-22
-1.47005e-23
4.41715e-22
-4.95359e-24
4.40681e-22
4.84715e-24
4.37552e-22
1.45974e-23
4.32318e-22
2.41783e-23
4.24978e-22
3.35159e-23
4.15591e-22
4.25911e-23
4.04251e-22
5.13857e-23
3.91047e-22
5.98259e-23
3.76074e-22
6.78426e-23
3.5944e-22
7.53616e-23
3.41267e-22
8.23184e-23
3.21696e-22
8.864e-23
3.00881e-22
9.426e-23
2.7899e-22
9.91089e-23
2.56209e-22
1.03115e-22
2.32744e-22
1.06201e-22
2.08816e-22
1.08295e-22
1.84663e-22
1.09315e-22
1.60547e-22
1.09174e-22
1.36751e-22
1.0778e-22
1.13579e-22
1.05035e-22
9.13753e-23
1.00813e-22
7.05235e-23
9.49817e-23
5.14004e-23
8.73966e-23
3.44612e-23
7.78439e-23
2.02972e-23
6.60064e-23
9.45896e-24
5.15773e-23
2.52499e-24
3.40459e-23
1.3304e-23
2.1974e-24
-1.54841e-23
8.18989e-24
-4.00041e-23
1.78432e-23
-6.1201e-23
3.04448e-23
-7.86515e-23
4.56001e-23
-9.30304e-23
6.28335e-23
-1.04659e-22
8.17209e-23
-1.13904e-22
1.01868e-22
-1.20987e-22
1.22932e-22
-1.26115e-22
1.44598e-22
-1.29466e-22
1.66566e-22
-1.31171e-22
1.88578e-22
-1.31359e-22
2.10397e-22
-1.30151e-22
2.31797e-22
-1.27646e-22
2.52574e-22
-1.23942e-22
2.72542e-22
-1.19136e-22
2.91531e-22
-1.13313e-22
3.09385e-22
-1.06564e-22
3.25962e-22
-9.89703e-23
3.41137e-22
-9.06172e-23
3.54795e-22
-8.15853e-23
3.66839e-22
-7.19585e-23
3.77177e-22
-6.18157e-23
3.8573e-22
-5.12403e-23
3.92422e-22
-4.03046e-23
3.97211e-22
-2.90656e-23
4.00086e-22
-1.75734e-23
4.01051e-22
-5.91609e-24
4.00103e-22
5.79793e-24
3.97248e-22
1.74568e-23
3.9248e-22
2.89514e-23
3.85807e-22
4.0195e-23
3.7727e-22
5.11348e-23
3.66948e-22
6.17152e-23
3.54921e-22
7.18624e-23
3.41278e-22
8.1496e-23
3.26116e-22
9.0535e-23
3.09553e-22
9.88956e-23
2.9171e-22
1.06498e-22
2.7273e-22
1.13257e-22
2.5277e-22
1.19089e-22
2.32001e-22
1.23905e-22
2.10606e-22
1.2762e-22
1.88791e-22
1.30136e-22
1.66778e-22
1.31356e-22
1.44806e-22
1.31176e-22
1.23138e-22
1.29481e-22
1.02071e-22
1.26136e-22
8.19132e-23
1.21012e-22
6.29931e-23
1.13943e-22
4.57296e-23
1.04699e-22
3.0566e-23
9.3051e-23
1.78817e-23
7.8727e-23
8.22846e-24
6.12824e-23
2.12479e-24
4.01741e-23
1.54306e-23
1.82015e-24
-1.73065e-23
7.1781e-24
-4.53849e-23
1.56058e-23
-6.96581e-23
2.67841e-23
-8.98647e-23
4.02523e-23
-1.06536e-22
5.56337e-23
-1.20077e-22
7.2534e-23
-1.30838e-22
9.06043e-23
-1.39087e-22
1.0953e-22
-1.45068e-22
1.29017e-22
-1.48977e-22
1.48796e-22
-1.50971e-22
1.68629e-22
-1.51211e-22
1.88291e-22
-1.4983e-22
2.07579e-22
-1.46948e-22
2.26308e-22
-1.42684e-22
2.44308e-22
-1.37147e-22
2.61425e-22
-1.3044e-22
2.77517e-22
-1.22664e-22
2.92458e-22
-1.13917e-22
3.06131e-22
-1.04296e-22
3.18435e-22
-9.38943e-23
3.29279e-22
-8.28056e-23
3.38584e-22
-7.11222e-23
3.46276e-22
-5.89342e-23
3.52299e-22
-4.63273e-23
3.56613e-22
-3.3378e-23
3.59206e-22
-2.01644e-23
3.60075e-22
-6.78224e-24
3.59219e-22
6.65718e-24
3.56639e-22
2.00405e-23
3.52337e-22
3.32567e-23
3.46328e-22
4.62092e-23
3.38647e-22
5.88202e-23
3.29355e-22
7.1013e-23
3.18522e-22
8.27026e-23
3.06227e-22
9.37979e-23
2.92563e-22
1.04208e-22
2.77631e-22
1.13838e-22
2.61547e-22
1.22594e-22
2.44438e-22
1.3038e-22
2.26444e-22
1.37098e-22
2.07719e-22
1.42648e-22
1.88434e-22
1.46923e-22
1.68775e-22
1.49816e-22
1.48942e-22
1.51211e-22
1.29161e-22
1.50982e-22
1.09674e-22
1.48995e-22
9.07381e-23
1.45104e-22
7.26499e-23
1.39131e-22
5.57522e-23
1.30875e-22
4.03563e-23
1.20132e-22
2.68218e-23
1.06616e-22
1.56414e-23
8.99421e-23
7.21304e-24
6.97332e-23
1.90137e-24
4.5519e-23
1.73333e-23
1.59105e-24
-1.89063e-23
6.2181e-24
-5.00328e-23
1.35508e-23
-7.70153e-23
2.33071e-23
-9.96486e-23
3.51158e-23
-1.18374e-22
4.86373e-23
-1.33628e-22
6.35385e-23
-1.45767e-22
7.95123e-23
-1.55087e-22
9.62682e-23
-1.61847e-22
1.13538e-22
-1.66267e-22
1.31087e-22
-1.68539e-22
1.48694e-22
-1.68834e-22
1.66155e-22
-1.67305e-22
1.83289e-22
-1.64095e-22
1.99931e-22
-1.59336e-22
2.15925e-22
-1.53151e-22
2.31134e-22
-1.45657e-22
2.45432e-22
-1.36969e-22
2.58705e-22
-1.27196e-22
2.70851e-22
-1.16446e-22
2.81778e-22
-1.04825e-22
2.91406e-22
-9.24362e-23
2.99663e-22
-7.93818e-23
3.06489e-22
-6.57612e-23
3.11835e-22
-5.16729e-23
3.15667e-22
-3.72091e-23
3.17971e-22
-2.24669e-23
3.18743e-22
-7.55136e-24
3.1798e-22
7.42337e-24
3.15683e-22
2.23405e-23
3.11859e-22
3.70854e-23
3.0652e-22
5.15521e-23
2.99701e-22
6.56448e-23
2.91449e-22
7.92702e-23
2.81827e-22
9.23311e-23
2.70905e-22
1.04727e-22
2.58765e-22
1.16357e-22
2.45497e-22
1.27116e-22
2.31204e-22
1.36898e-22
2.15999e-22
1.45597e-22
2.00009e-22
1.53103e-22
1.83371e-22
1.593e-22
1.66239e-22
1.64072e-22
1.48779e-22
1.67295e-22
1.31174e-22
1.68836e-22
1.13624e-22
1.68555e-22
9.63472e-23
1.66296e-22
7.95914e-23
1.61885e-22
6.36184e-23
1.55134e-22
4.8691e-23
1.45833e-22
3.51485e-23
1.33701e-22
2.33509e-23
1.18441e-22
1.35774e-23
9.9739e-23
6.19999e-24
7.71467e-23
1.59092e-24
5.01396e-23
1.89253e-23
1.379e-24
-2.02894e-23
5.2994e-24
-5.39741e-23
1.15925e-23
-8.33297e-23
1.99642e-23
-1.08043e-22
3.0139e-23
-1.28572e-22
4.18225e-23
-1.45335e-22
5.47253e-23
-1.58693e-22
6.85811e-23
-1.68964e-22
8.31389e-23
-1.76425e-22
9.81635e-23
-1.8131e-22
1.13444e-22
-1.83835e-22
1.28783e-22
-1.84187e-22
1.44003e-22
-1.82538e-22
1.58944e-22
-1.79047e-22
1.73457e-22
-1.73858e-22
1.87407e-22
-1.67109e-22
2.00672e-22
-1.5893e-22
2.13142e-22
-1.49445e-22
2.24717e-22
-1.38777e-22
2.35308e-22
-1.27042e-22
2.44835e-22
-1.14356e-22
2.53227e-22
-1.00831e-22
2.60423e-22
-8.65796e-23
2.66371e-22
-7.17108e-23
2.71031e-22
-5.63328e-23
2.74374e-22
-4.05519e-23
2.76385e-22
-2.44765e-23
2.77057e-22
-8.22066e-24
2.76388e-22
8.09586e-24
2.74379e-22
2.43526e-23
2.71039e-22
4.04303e-23
2.66381e-22
5.62145e-23
2.60435e-22
7.15966e-23
2.53241e-22
8.64702e-23
2.44852e-22
1.00728e-22
2.35327e-22
1.14259e-22
2.24739e-22
1.26954e-22
2.13166e-22
1.38698e-22
2.00697e-22
1.49377e-22
1.87434e-22
1.58872e-22
1.73486e-22
1.67063e-22
1.58975e-22
1.73824e-22
1.44037e-22
1.79026e-22
1.28817e-22
1.8253e-22
1.13478e-22
1.84193e-22
9.8198e-23
1.83854e-22
8.31747e-23
1.8134e-22
6.86146e-23
1.76469e-22
5.47493e-23
1.69023e-22
4.18512e-23
1.58755e-22
3.01688e-23
1.45409e-22
1.99612e-23
1.28671e-22
1.15813e-23
1.0814e-22
5.31463e-24
8.34227e-23
1.39023e-24
5.40865e-23
2.03163e-23
1.14137e-24
-2.14394e-23
4.4298e-24
-5.72801e-23
9.70237e-24
-8.86203e-23
1.67363e-23
-1.15096e-22
2.53034e-23
-1.37159e-22
3.51581e-23
-1.55209e-22
4.60655e-23
-1.69619e-22
5.77982e-23
-1.80715e-22
7.01393e-23
-1.88782e-22
8.28908e-23
-1.94076e-22
9.58711e-23
-1.96829e-22
1.0891e-22
-1.97237e-22
1.21853e-22
-1.95491e-22
1.34561e-22
-1.91765e-22
1.46909e-22
-1.86214e-22
1.58779e-22
-1.78986e-22
1.70067e-22
-1.70224e-22
1.80678e-22
-1.60061e-22
1.90527e-22
-1.4863e-22
1.99537e-22
-1.36056e-22
2.07641e-22
-1.22462e-22
2.14778e-22
-1.0797e-22
2.20898e-22
-9.27007e-23
2.25957e-22
-7.67708e-23
2.29921e-22
-6.0297e-23
2.32766e-22
-4.33963e-23
2.34477e-22
-2.61865e-23
2.35048e-22
-8.78909e-24
2.34475e-22
8.67134e-24
2.32762e-22
2.60697e-23
2.29915e-22
4.3281e-23
2.2595e-22
6.01845e-23
2.20889e-22
7.66622e-23
2.14768e-22
9.25972e-23
2.07629e-22
1.07873e-22
1.99524e-22
1.22371e-22
1.90513e-22
1.35973e-22
1.80663e-22
1.48556e-22
1.70052e-22
1.59997e-22
1.58765e-22
1.70169e-22
1.46895e-22
1.78943e-22
1.34548e-22
1.86182e-22
1.2184e-22
1.91746e-22
1.08899e-22
1.95485e-22
9.58625e-23
1.97244e-22
8.28841e-23
1.96848e-22
7.01322e-23
1.9411e-22
5.77927e-23
1.88826e-22
4.60659e-23
1.8077e-22
3.51522e-23
1.6969e-22
2.52896e-23
1.55289e-22
1.67386e-23
1.37237e-22
9.70441e-24
1.15188e-22
4.42211e-24
8.87293e-23
1.13258e-24
5.73787e-23
2.14495e-23
9.22352e-25
-2.2365e-23
3.59142e-24
-5.99647e-23
7.87253e-24
-9.29158e-23
1.35963e-23
-1.20834e-22
2.0576e-23
-1.44153e-22
2.86191e-23
-1.63267e-22
3.75366e-23
-1.78551e-22
4.71413e-23
-1.90333e-22
5.72553e-23
-1.98909e-22
6.77155e-23
-2.04548e-22
7.83705e-23
-2.07494e-22
8.90786e-23
-2.07954e-22
9.97122e-23
-2.06133e-22
1.10158e-22
-2.02217e-22
1.20307e-22
-1.9637e-22
1.30066e-22
-1.8875e-22
1.39346e-22
-1.79508e-22
1.4807e-22
-1.68789e-22
1.56167e-22
-1.5673e-22
1.63574e-22
-1.43465e-22
1.70234e-22
-1.29125e-22
1.76101e-22
-1.13838e-22
1.8113e-22
-9.77309e-23
1.85287e-22
-8.09283e-23
1.88545e-22
-6.35544e-23
1.90883e-22
-4.57339e-23
1.9229e-22
-2.75915e-23
1.92758e-22
-9.25514e-24
1.92285e-22
9.14682e-24
1.90873e-22
2.74845e-23
1.88529e-22
4.56287e-23
1.85266e-22
6.34519e-23
1.81103e-22
8.0829e-23
1.76069e-22
9.7636e-23
1.70199e-22
1.13749e-22
1.63534e-22
1.29042e-22
1.56124e-22
1.43389e-22
1.48024e-22
1.56662e-22
1.39298e-22
1.6873e-22
1.30016e-22
1.79459e-22
1.20257e-22
1.88711e-22
1.10107e-22
1.96341e-22
9.9663e-23
2.022e-22
8.90311e-23
2.06128e-22
7.83246e-23
2.07962e-22
6.76725e-23
2.07513e-22
5.72178e-23
2.04578e-22
4.7108e-23
1.98951e-22
3.75055e-23
1.90388e-22
2.85953e-23
1.78614e-22
2.05617e-23
1.63337e-22
1.35757e-23
1.44237e-22
7.85463e-24
1.20919e-22
3.59084e-24
9.29932e-23
9.35133e-25
6.00492e-23
2.23849e-23
7.13856e-25
-2.3085e-23
2.77777e-24
-6.20382e-23
6.08876e-24
-9.62365e-23
1.05222e-23
-1.25277e-22
1.59359e-23
-1.49577e-22
2.21845e-23
-1.69526e-22
2.91184e-23
-1.85495e-22
3.65927e-23
-1.97817e-22
4.4471e-23
-2.06796e-22
5.26248e-23
-2.12709e-22
6.0935e-23
-2.15811e-22
6.92883e-23
-2.16314e-22
7.7588e-23
-2.14438e-22
8.57433e-23
-2.10377e-22
9.36695e-23
-2.043e-22
1.0129e-22
-1.96374e-22
1.08537e-22
-1.86758e-22
1.15349e-22
-1.75604e-22
1.21672e-22
-1.63054e-22
1.27455e-22
-1.4925e-22
1.32656e-22
-1.34326e-22
1.37235e-22
-1.18418e-22
1.41161e-22
-1.01657e-22
1.44406e-22
-8.41733e-23
1.46949e-22
-6.60971e-23
1.48775e-22
-4.75583e-23
1.49872e-22
-2.86874e-23
1.50235e-22
-9.61631e-24
1.49863e-22
9.52162e-24
1.48757e-22
2.85927e-23
1.46923e-22
4.74649e-23
1.44372e-22
6.6006e-23
1.41119e-22
8.40854e-23
1.37186e-22
1.01573e-22
1.326e-22
1.18339e-22
1.27393e-22
1.34253e-22
1.21604e-22
1.49182e-22
1.15277e-22
1.62994e-22
1.08461e-22
1.75551e-22
1.01211e-22
1.86714e-22
9.35892e-23
1.96339e-22
8.56627e-23
2.04275e-22
7.7508e-23
2.10362e-22
6.92098e-23
2.14434e-22
6.08604e-23
2.1632e-22
5.2555e-23
2.15828e-22
4.44065e-23
2.12738e-22
3.6534e-23
2.06834e-22
2.90701e-23
1.97862e-22
2.21463e-23
1.8555e-22
1.59004e-23
1.69592e-22
1.04973e-23
1.49644e-22
6.07804e-24
1.25346e-22
2.77148e-24
9.63145e-23
7.10921e-25
6.21054e-23
2.3096e-23
5.0758e-25
-2.35929e-23
1.97823e-24
-6.3515e-23
4.33943e-24
-9.86029e-23
7.50172e-24
-1.28444e-22
1.13655e-23
-1.53446e-22
1.58273e-23
-1.73993e-22
2.07815e-23
-1.90455e-22
2.61271e-23
-2.03168e-22
3.17661e-23
-2.1244e-22
3.76017e-23
-2.1855e-22
4.35534e-23
-2.21767e-22
4.95351e-23
-2.22299e-22
5.54823e-23
-2.20388e-22
6.13269e-23
-2.16224e-22
6.70074e-23
-2.09982e-22
7.24683e-23
-2.01836e-22
7.76619e-23
-1.91953e-22
8.25435e-23
-1.80486e-22
8.7074e-23
-1.67585e-22
9.12176e-23
-1.53394e-22
9.49435e-23
-1.38052e-22
9.82241e-23
-1.21698e-22
1.01037e-22
-1.04469e-22
1.03361e-22
-8.64966e-23
1.05182e-22
-6.7917e-23
1.06488e-22
-4.8863e-23
1.07272e-22
-2.94703e-23
1.07531e-22
-9.87308e-24
1.07261e-22
9.79243e-24
1.06466e-22
2.93904e-23
1.05148e-22
4.87847e-23
1.03316e-22
6.784e-23
1.00982e-22
8.64221e-23
9.81605e-23
1.04397e-22
9.4871e-23
1.21631e-22
9.11371e-23
1.3799e-22
8.69859e-23
1.53337e-22
8.24494e-23
1.67534e-22
7.75628e-23
1.80442e-22
7.23658e-23
1.91915e-22
6.69025e-23
2.01807e-22
6.12212e-23
2.09961e-22
5.53771e-23
2.16211e-22
4.94327e-23
2.20383e-22
4.34552e-23
2.22303e-22
3.75086e-23
2.21781e-22
3.16815e-23
2.18571e-22
2.60541e-23
2.12469e-22
2.07158e-23
2.03209e-22
1.57694e-23
1.90501e-22
1.13257e-23
1.7404e-22
7.47701e-24
1.535e-22
4.31741e-24
1.28506e-22
1.96429e-24
9.86599e-23
5.05704e-25
6.35719e-23
2.36016e-23
3.05169e-25
-2.3901e-23
1.1922e-24
-6.4402e-23
2.6139e-24
-1.00025e-22
4.5157e-24
-1.30347e-22
6.83937e-24
-1.5577e-22
9.52206e-24
-1.76677e-22
1.25014e-23
-1.93435e-22
1.57164e-23
-2.06384e-22
1.91145e-23
-2.15839e-22
2.26389e-23
-2.22075e-22
2.62064e-23
-2.25335e-22
2.98025e-23
-2.25896e-22
3.33921e-23
-2.23978e-22
3.69151e-23
-2.19748e-22
4.03305e-23
-2.13398e-22
4.36147e-23
-2.0512e-22
4.67389e-23
-1.95077e-22
4.96759e-23
-1.83423e-22
5.24014e-23
-1.7031e-22
5.48942e-23
-1.55886e-22
5.71351e-23
-1.40292e-22
5.91079e-23
-1.2367e-22
6.07981e-23
-1.06157e-22
6.21946e-23
-8.78914e-23
6.32882e-23
-6.90088e-23
6.40723e-23
-4.96455e-23
6.45415e-23
-2.99381e-23
6.46935e-23
-1.00238e-23
6.45277e-23
9.95943e-24
6.40452e-23
2.98741e-23
6.32489e-23
4.95824e-23
6.2143e-23
6.89473e-23
6.07343e-23
8.78322e-23
5.90325e-23
1.061e-22
5.70494e-23
1.23616e-22
5.4799e-23
1.40242e-22
5.22979e-23
1.5584e-22
4.9565e-23
1.70269e-22
4.66222e-23
1.83387e-22
4.34937e-23
1.95046e-22
4.02067e-23
2.05096e-22
3.67902e-23
2.13379e-22
3.32681e-23
2.19736e-22
2.96809e-23
2.23973e-22
2.60893e-23
2.25898e-22
2.25303e-23
2.25343e-22
1.90148e-23
2.22091e-22
1.5625e-23
2.15862e-22
1.24251e-23
2.0641e-22
9.46556e-24
1.93465e-22
6.78888e-24
1.76719e-22
4.47033e-24
1.55813e-22
2.59164e-24
1.30385e-22
1.1904e-24
1.00067e-22
3.08758e-25
6.44431e-23
2.39101e-23
1.05354e-25
-2.40036e-23
4.12538e-25
-6.47059e-23
9.00892e-25
-1.00509e-22
1.55024e-24
-1.30993e-22
2.33965e-24
-1.56556e-22
3.24881e-24
-1.77583e-22
4.25565e-24
-1.9444e-22
5.33683e-24
-2.07463e-22
6.46811e-24
-2.16968e-22
7.64167e-24
-2.23247e-22
8.86183e-24
-2.26553e-22
1.01282e-23
-2.2716e-22
1.13413e-23
-2.2519e-22
1.24991e-23
-2.20904e-22
1.36357e-23
-2.14533e-22
1.4736e-23
-2.06219e-22
1.57831e-23
-1.96122e-22
1.67672e-23
-1.84405e-22
1.76802e-23
-1.71221e-22
1.85149e-23
-1.56718e-22
1.92644e-23
-1.4104e-22
1.99235e-23
-1.24327e-22
2.04877e-23
-1.06719e-22
2.09532e-23
-8.83547e-23
2.13162e-23
-6.93698e-23
2.15747e-23
-4.99024e-23
2.17274e-23
-3.00894e-23
2.17733e-23
-1.00688e-23
2.17124e-23
1.00213e-23
2.15449e-23
3.00423e-23
2.12719e-23
4.98561e-23
2.0895e-23
6.93248e-23
2.04169e-23
8.8311e-23
1.98403e-23
1.06678e-22
1.91698e-23
1.24287e-22
1.84094e-23
1.41003e-22
1.75657e-23
1.56684e-22
1.66445e-23
1.7119e-22
1.56539e-23
1.84378e-22
1.46018e-23
1.96098e-22
1.34987e-23
2.06199e-22
1.23607e-23
2.14517e-22
1.1204e-23
2.20892e-22
9.99401e-24
2.25183e-22
8.73305e-24
2.27159e-22
7.51988e-24
2.26556e-22
6.35617e-24
2.23254e-22
5.24088e-24
2.16978e-22
4.17169e-24
2.0748e-22
3.1703e-24
1.94462e-22
2.2843e-24
1.77601e-22
1.52251e-24
1.56575e-22
8.74274e-25
1.31024e-22
3.86596e-25
1.0054e-22
9.25612e-26
6.47383e-23
2.40022e-23
-9.39348e-26
-2.39096e-23
-3.63362e-25
-6.4427e-23
-8.0715e-25
-1.00057e-22
-1.40914e-24
-1.30382e-22
-2.15044e-24
-1.55807e-22
-3.01209e-24
-1.76714e-22
-3.97362e-24
-1.93471e-22
-5.01159e-24
-2.06419e-22
-6.10269e-24
-2.15871e-22
-7.23859e-24
-2.22106e-22
-8.42346e-24
-2.25364e-22
-9.65726e-24
-2.25922e-22
-1.08404e-23
-2.24002e-22
-1.19713e-23
-2.19769e-22
-1.30842e-23
-2.13416e-22
-1.41636e-23
-2.05136e-22
-1.51932e-23
-1.95089e-22
-1.61626e-23
-1.83433e-22
-1.70641e-23
-1.70317e-22
-1.78901e-23
-1.55889e-22
-1.86339e-23
-1.40293e-22
-1.92899e-23
-1.23668e-22
-1.98536e-23
-1.06153e-22
-2.03214e-23
-8.78843e-23
-2.069e-23
-6.8999e-23
-2.09571e-23
-4.96334e-23
-2.11213e-23
-2.99239e-23
-2.11813e-23
-1.00078e-23
-2.11371e-23
9.97764e-24
-2.09885e-23
2.98943e-23
-2.07368e-23
4.96045e-23
-2.03828e-23
6.89709e-23
-1.99289e-23
8.78568e-23
-1.9378e-23
1.06126e-22
-1.87342e-23
1.23643e-22
-1.80016e-23
1.40269e-22
-1.71858e-23
1.55867e-22
-1.62928e-23
1.70296e-22
-1.53301e-23
1.83414e-22
-1.43058e-23
1.95072e-22
-1.32297e-23
2.05121e-22
-1.2118e-23
2.13403e-22
-1.09862e-23
2.19758e-22
-9.79969e-24
2.23994e-22
-8.56018e-24
2.25916e-22
-7.36632e-24
2.25359e-22
-6.21943e-24
2.22105e-22
-5.12062e-24
2.15874e-22
-4.06647e-24
2.06419e-22
-3.07797e-24
1.93471e-22
-2.20828e-24
1.76724e-22
-1.46933e-24
1.55821e-22
-8.36776e-25
1.30385e-22
-3.65697e-25
1.00066e-22
-8.77168e-26
6.44437e-23
2.39138e-23
-2.96993e-25
-2.36068e-23
-1.14442e-24
-6.35668e-23
-2.52117e-24
-9.86667e-23
-4.37676e-24
-1.28514e-22
-6.65393e-24
-1.53518e-22
-9.29194e-24
-1.74065e-22
-1.22279e-23
-1.90525e-22
-1.54015e-23
-2.03236e-22
-1.87606e-23
-2.12503e-22
-2.22485e-23
-2.1861e-22
-2.57815e-23
-2.21823e-22
-2.93467e-23
-2.2235e-22
-3.29084e-23
-2.20434e-22
-3.64058e-23
-2.16265e-22
-3.97983e-23
-2.10018e-22
-4.30625e-23
-2.01866e-22
-4.61697e-23
-1.91977e-22
-4.90924e-23
-1.80505e-22
-5.18066e-23
-1.67598e-22
-5.42905e-23
-1.53401e-22
-5.65256e-23
-1.38054e-22
-5.84954e-23
-1.21695e-22
-6.0186e-23
-1.04459e-22
-6.15853e-23
-8.64822e-23
-6.26843e-23
-6.78976e-23
-6.34759e-23
-4.88398e-23
-6.39562e-23
-2.94422e-23
-6.41218e-23
-9.84104e-24
-6.39725e-23
9.82886e-24
-6.35079e-23
2.94298e-23
-6.27314e-23
4.88277e-23
-6.1647e-23
6.7886e-23
-6.02625e-23
8.64713e-23
-5.85855e-23
1.04448e-22
-5.66288e-23
1.21684e-22
-5.44045e-23
1.38043e-22
-5.19308e-23
1.53391e-22
-4.92251e-23
1.67588e-22
-4.63098e-23
1.80495e-22
-4.32077e-23
1.91967e-22
-3.99472e-23
2.01856e-22
-3.65557e-23
2.10007e-22
-3.30577e-23
2.16255e-22
-2.94923e-23
2.20423e-22
-2.59215e-23
2.2234e-22
-2.23817e-23
2.21813e-22
-1.88838e-23
2.18598e-22
-1.55062e-23
2.1249e-22
-1.23205e-23
2.03228e-22
-9.38294e-24
1.90519e-22
-6.71936e-24
1.74048e-22
-4.40572e-24
1.53501e-22
-2.55264e-24
1.28513e-22
-1.18049e-24
9.86713e-23
-3.14099e-25
6.3571e-23
2.35988e-23
-4.95443e-25
-2.3108e-23
-1.92948e-24
-6.2113e-23
-4.24943e-24
-9.63283e-23
-7.36894e-24
-1.25377e-22
-1.11895e-23
-1.49681e-22
-1.56095e-23
-1.69629e-22
-2.05248e-23
-1.85595e-22
-2.58335e-23
-1.97914e-22
-3.14364e-23
-2.06888e-22
-3.72393e-23
-2.12796e-22
-4.31603e-23
-2.15891e-22
-4.91134e-23
-2.16387e-22
-5.50338e-23
-2.14504e-22
-6.08553e-23
-2.10435e-22
-6.65141e-23
-2.04351e-22
-7.1957e-23
-1.96416e-22
-7.71338e-23
-1.86793e-22
-8.20027e-23
-1.7563e-22
-8.65218e-23
-1.63073e-22
-9.06584e-23
-1.4926e-22
-9.43782e-23
-1.34329e-22
-9.76565e-23
-1.18412e-22
-1.00467e-22
-1.01644e-22
-1.02795e-22
-8.41521e-23
-1.0462e-22
-6.60694e-23
-1.05935e-22
-4.7523e-23
-1.06728e-22
-2.86468e-23
-1.06999e-22
-9.56931e-24
-1.06743e-22
9.57358e-24
-1.05966e-22
2.86516e-23
-1.04666e-22
4.75281e-23
-1.02856e-22
6.60744e-23
-1.00543e-22
8.41569e-23
-9.77452e-23
1.01648e-22
-9.44788e-23
1.18416e-22
-9.07708e-23
1.34332e-22
-8.66443e-23
1.49261e-22
-8.2134e-23
1.63073e-22
-7.72718e-23
1.75628e-22
-7.21006e-23
1.8679e-22
-6.6661e-23
1.96411e-22
-6.1004e-23
2.04343e-22
-5.51816e-23
2.10425e-22
-4.92586e-23
2.14492e-22
-4.33002e-23
2.16372e-22
-3.73701e-23
2.15873e-22
-3.15565e-23
2.12777e-22
-2.59479e-23
2.0687e-22
-2.06236e-23
1.97887e-22
-1.56763e-23
1.85562e-22
-1.12527e-23
1.6961e-22
-7.44107e-24
1.49664e-22
-4.28662e-24
1.25345e-22
-1.9322e-24
9.63034e-23
-4.9055e-25
6.21061e-23
2.31072e-23
-7.06974e-25
-2.2392e-23
-2.73157e-24
-6.00651e-23
-6.00456e-24
-9.30319e-23
-1.03991e-23
-1.20959e-22
-1.57762e-23
-1.44282e-22
-2.19881e-23
-1.63397e-22
-2.8888e-23
-1.78677e-22
-3.63311e-23
-1.90453e-22
-4.41797e-23
-1.99024e-22
-5.23048e-23
-2.04656e-22
-6.05886e-23
-2.07594e-22
-6.89165e-23
-2.08047e-22
-7.71939e-23
-2.06216e-22
-8.53278e-23
-2.0229e-22
-9.32353e-23
-1.96434e-22
-1.00839e-22
-1.88803e-22
-1.08072e-22
-1.79552e-22
-1.14872e-22
-1.68822e-22
-1.21185e-22
-1.56754e-22
-1.2696e-22
-1.43478e-22
-1.32156e-22
-1.29128e-22
-1.36732e-22
-1.13831e-22
-1.40658e-22
-9.77147e-23
-1.43905e-22
-8.09016e-23
-1.46452e-22
-6.35201e-23
-1.48284e-22
-4.56894e-23
-1.49389e-22
-2.75399e-23
-1.49764e-22
-9.19358e-24
-1.49405e-22
9.21426e-24
-1.48313e-22
2.75603e-23
-1.46496e-22
4.57091e-23
-1.43963e-22
6.35399e-23
-1.40729e-22
8.09205e-23
-1.36817e-22
9.77334e-23
-1.32252e-22
1.13847e-22
-1.27067e-22
1.29144e-22
-1.21301e-22
1.43489e-22
-1.14997e-22
1.56764e-22
-1.08203e-22
1.68828e-22
-1.00976e-22
1.79556e-22
-9.33753e-23
1.88801e-22
-8.54702e-23
1.96429e-22
-7.73352e-23
2.0228e-22
-6.90558e-23
2.06202e-22
-6.07223e-23
2.08027e-22
-5.24338e-23
2.07573e-22
-4.42995e-23
2.04627e-22
-3.64333e-23
1.98988e-22
-2.89782e-23
1.9042e-22
-2.20863e-23
1.78647e-22
-1.58474e-23
1.63348e-22
-1.04246e-23
1.44228e-22
-6.03968e-24
1.20931e-22
-2.77873e-24
9.30122e-23
-7.31221e-25
6.00446e-23
2.23747e-23
-9.12988e-25
-2.1472e-23
-3.54775e-24
-5.7401e-23
-7.79309e-24
-8.87582e-23
-1.34855e-23
-1.1524e-22
-2.04367e-23
-1.37306e-22
-2.84532e-23
-1.55357e-22
-3.73452e-23
-1.69763e-22
-4.69244e-23
-1.80854e-22
-5.70155e-23
-1.88914e-22
-6.74523e-23
-1.94202e-22
-7.8087e-23
-1.96944e-22
-8.87743e-23
-1.97345e-22
-9.93897e-23
-1.95587e-22
-1.09816e-22
-1.91852e-22
-1.19952e-22
-1.86287e-22
-1.29695e-22
-1.7905e-22
-1.38965e-22
-1.70273e-22
-1.47676e-22
-1.60102e-22
-1.55766e-22
-1.48656e-22
-1.63164e-22
-1.36073e-22
-1.69823e-22
-1.22464e-22
-1.75683e-22
-1.07965e-22
-1.80715e-22
-9.26795e-23
-1.8487e-22
-7.67424e-23
-1.88135e-22
-6.02533e-23
-1.90475e-22
-4.33467e-23
-1.91892e-22
-2.61222e-23
-1.92364e-22
-8.7205e-24
-1.91905e-22
8.75408e-24
-1.905e-22
2.61557e-23
-1.88174e-22
4.33804e-23
-1.84922e-22
6.02859e-23
-1.8078e-22
7.67748e-23
-1.75759e-22
9.27096e-23
-1.69911e-22
1.07994e-22
-1.63261e-22
1.22489e-22
-1.55874e-22
1.36096e-22
-1.47789e-22
1.48673e-22
-1.39086e-22
1.60116e-22
-1.29819e-22
1.7028e-22
-1.20082e-22
1.79054e-22
-1.09946e-22
1.86283e-22
-9.9521e-23
1.91843e-22
-8.89018e-23
1.95571e-22
-7.8213e-23
1.97325e-22
-6.75689e-23
1.96914e-22
-5.71247e-23
1.94168e-22
-4.70303e-23
1.88879e-22
-3.74418e-23
1.80807e-22
-2.85142e-23
1.69701e-22
-2.04949e-23
1.5531e-22
-1.35708e-23
1.37268e-22
-7.83822e-24
1.15179e-22
-3.54738e-24
8.86995e-23
-9.05697e-25
5.73747e-23
2.14675e-23
-1.1354e-24
-2.03248e-23
-4.3905e-24
-5.4113e-23
-9.63447e-24
-8.34824e-23
-1.66443e-23
-1.082e-22
-2.51906e-23
-1.2873e-22
-3.503e-23
-1.4549e-22
-4.59213e-23
-1.58846e-22
-5.76387e-23
-1.69113e-22
-6.99645e-23
-1.76566e-22
-8.2702e-23
-1.81444e-22
-9.56658e-23
-1.83961e-22
-1.0869e-22
-1.84303e-22
-1.21618e-22
-1.82643e-22
-1.34315e-22
-1.79141e-22
-1.46649e-22
-1.7394e-22
-1.5851e-22
-1.67178e-22
-1.69786e-22
-1.58985e-22
-1.80391e-22
-1.49489e-22
-1.90231e-22
-1.38807e-22
-1.99238e-22
-1.2706e-22
-2.07335e-22
-1.14359e-22
-2.14473e-22
-1.00823e-22
-2.20589e-22
-8.65577e-23
-2.2565e-22
-7.16785e-23
-2.29614e-22
-5.62862e-23
-2.32464e-22
-4.04956e-23
-2.34177e-22
-2.44064e-23
-2.34756e-22
-8.14255e-24
-2.34189e-22
8.18696e-24
-2.32486e-22
2.44504e-23
-2.29647e-22
4.05399e-23
-2.25695e-22
5.63288e-23
-2.20644e-22
7.17209e-23
-2.14538e-22
8.65963e-23
-2.0741e-22
1.00861e-22
-1.99322e-22
1.14391e-22
-1.90323e-22
1.2709e-22
-1.8049e-22
1.38829e-22
-1.69891e-22
1.49509e-22
-1.58619e-22
1.58997e-22
-1.46761e-22
1.67186e-22
-1.34429e-22
1.73937e-22
-1.21733e-22
1.79135e-22
-1.08804e-22
1.82627e-22
-9.57748e-23
1.84281e-22
-8.28077e-23
1.8393e-22
-7.00666e-23
1.81409e-22
-5.77242e-23
1.76513e-22
-4.5998e-23
1.69063e-22
-3.51225e-23
1.58799e-22
-2.52703e-23
1.45424e-22
-1.66642e-23
1.28645e-22
-9.66775e-24
1.08148e-22
-4.45056e-24
8.34471e-23
-1.17327e-24
5.40798e-23
2.02928e-23
-1.36416e-24
-1.89508e-23
-5.2656e-24
-5.01745e-23
-1.15361e-23
-7.71765e-23
-1.98997e-23
-9.98022e-23
-3.0068e-23
-1.1853e-22
-4.17446e-23
-1.33783e-22
-5.46426e-23
-1.45918e-22
-6.84948e-23
-1.55233e-22
-8.30444e-23
-1.61991e-22
-9.80626e-23
-1.66402e-22
-1.13333e-22
-1.68669e-22
-1.28666e-22
-1.6895e-22
-1.43876e-22
-1.67415e-22
-1.58811e-22
-1.64189e-22
-1.73312e-22
-1.59423e-22
-1.87259e-22
-1.53218e-22
-2.00513e-22
-1.45719e-22
-2.12982e-22
-1.37009e-22
-2.24547e-22
-1.27232e-22
-2.35139e-22
-1.16459e-22
-2.44656e-22
-1.04835e-22
-2.53052e-22
-9.2421e-23
-2.60239e-22
-7.93659e-23
-2.66194e-22
-6.57191e-23
-2.70846e-22
-5.16316e-23
-2.74198e-22
-3.7141e-23
-2.76203e-22
-2.24017e-23
-2.76886e-22
-7.45881e-24
-2.7621e-22
7.5101e-24
-2.74215e-22
2.24536e-23
-2.7087e-22
3.71902e-23
-2.66229e-22
5.16821e-23
-2.6028e-22
6.57643e-23
-2.53104e-22
7.94126e-23
-2.44713e-22
9.24597e-23
-2.35208e-22
1.04875e-22
-2.24617e-22
1.16488e-22
-2.13063e-22
1.27263e-22
-2.00594e-22
1.37028e-22
-1.87348e-22
1.45738e-22
-1.73399e-22
1.53223e-22
-1.58905e-22
1.59429e-22
-1.43964e-22
1.64179e-22
-1.28759e-22
1.67405e-22
-1.13421e-22
1.68926e-22
-9.81516e-23
1.68641e-22
-8.31207e-23
1.66357e-22
-6.85798e-23
1.61952e-22
-5.4723e-23
1.55177e-22
-4.1797e-23
1.45844e-22
-3.01119e-23
1.33716e-22
-1.99844e-23
1.18479e-22
-1.1592e-23
9.973e-23
-5.26414e-24
7.70962e-23
-1.34268e-24
5.01288e-23
1.89488e-23
-1.59735e-24
-1.73394e-23
-6.18464e-24
-4.55476e-23
-1.35194e-23
-6.98019e-23
-2.32755e-23
-9.00077e-23
-3.50915e-23
-1.06676e-22
-4.86235e-23
-1.20215e-22
-6.35353e-23
-1.30973e-22
-7.95106e-23
-1.39226e-22
-9.62691e-23
-1.45203e-22
-1.1354e-22
-1.49104e-22
-1.3109e-22
-1.51093e-22
-1.48691e-22
-1.51325e-22
-1.66154e-22
-1.49931e-22
-1.83283e-22
-1.4704e-22
-1.99924e-22
-1.42763e-22
-2.1591e-22
-1.37215e-22
-2.31121e-22
-1.30493e-22
-2.4541e-22