/*--------------------------------*- C++ -*----------------------------------*\
| =========                 |                                                 |
| \\      /  F ield         | OpenFOAM: The Open Source CFD Toolbox           |
|  \\    /   O peration     | Version:  5.0                                   |
|   \\  /    A nd           | Web:      www.OpenFOAM.org                      |
|    \\/     M anipulation  |                                                 |
\*---------------------------------------------------------------------------*/
FoamFile
{
    version     2.0;
    format      ascii;
    class       surfaceScalarField;
    location    "263";
    object      phi;
}
// * * * * * * * * * * * * * * * * * * * * * * * * * * * * * * * * * * * * * //

dimensions      [0 3 -1 0 0 0 0];

internalField   nonuniform List<scalar> 
3052
(
1.516e-22
-3.23821e-22
7.2609e-22
-6.05012e-22
1.77187e-21
-1.06469e-21
2.96554e-21
-1.2178e-21
4.31874e-21
-1.36726e-21
5.90958e-21
-1.60388e-21
7.61466e-21
-1.71435e-21
9.40663e-21
-1.80111e-21
1.12823e-20
-1.8876e-21
1.32086e-20
-1.93729e-21
1.51553e-20
-1.95694e-21
1.71049e-20
-1.95957e-21
1.90383e-20
-1.94302e-21
2.09341e-20
-1.90479e-21
2.27744e-20
-1.85016e-21
2.45442e-20
-1.77928e-21
2.6227e-20
-1.69228e-21
2.781e-20
-1.59182e-21
2.92797e-20
-1.47852e-21
3.06257e-20
-1.35416e-21
3.18368e-20
-1.2188e-21
3.29059e-20
-1.0755e-21
3.38237e-20
-9.23439e-22
3.45817e-20
-7.62245e-22
3.51776e-20
-5.99976e-22
3.56141e-20
-4.39645e-22
3.58761e-20
-2.64647e-22
3.59615e-20
-8.61347e-23
3.58681e-20
9.3294e-23
3.55993e-20
2.69686e-22
3.51565e-20
4.44859e-22
3.45554e-20
6.06036e-22
3.37917e-20
7.70553e-22
3.28713e-20
9.29056e-22
3.17998e-20
1.08088e-21
3.05888e-20
1.22147e-21
2.92413e-20
1.35754e-21
2.77735e-20
1.47872e-21
2.61922e-20
1.59234e-21
2.45119e-20
1.69109e-21
2.27447e-20
1.77623e-21
2.09096e-20
1.84399e-21
1.90188e-20
1.89892e-21
1.7093e-20
1.93427e-21
1.51498e-20
1.95182e-21
1.32119e-20
1.94729e-21
1.12994e-20
1.92217e-21
9.43713e-21
1.87202e-21
7.64959e-21
1.79883e-21
5.9643e-21
1.69517e-21
4.40998e-21
1.55995e-21
3.02599e-21
1.39596e-21
1.84696e-21
1.19393e-21
8.91981e-22
9.6046e-22
2.68985e-22
6.29439e-22
2.69515e-22
2.27993e-22
-5.81766e-22
8.06476e-22
-1.20928e-21
1.53957e-21
-1.89203e-21
2.63029e-21
-2.34805e-21
3.97891e-21
-2.75801e-21
5.41797e-21
-3.07098e-21
6.99269e-21
-3.31486e-21
8.67841e-21
-3.51728e-21
1.04235e-20
-3.66079e-21
1.221e-20
-3.75288e-21
1.4025e-20
-3.79976e-21
1.58439e-20
-3.80395e-21
1.7644e-20
-3.7676e-21
1.94081e-20
-3.69557e-21
2.11218e-20
-3.58927e-21
2.27677e-20
-3.45104e-21
2.43341e-20
-3.28269e-21
2.58063e-20
-3.08814e-21
2.71742e-20
-2.86782e-21
2.8425e-20
-2.62586e-21
2.95517e-20
-2.36287e-21
3.05434e-20
-2.08344e-21
3.13959e-20
-1.78737e-21
3.21031e-20
-1.48057e-21
3.2664e-20
-1.1684e-21
3.30672e-20
-8.49713e-22
3.33129e-20
-5.13066e-22
3.33925e-20
-1.677e-22
3.33059e-20
1.81082e-22
3.30518e-20
5.27226e-22
3.26411e-20
8.65544e-22
3.20761e-20
1.18543e-21
3.13681e-20
1.49935e-21
3.05152e-20
1.80543e-21
2.95226e-20
2.10035e-21
2.83942e-20
2.37581e-21
2.71444e-20
2.63645e-21
2.57775e-20
2.87417e-21
2.43078e-20
3.09071e-21
2.27442e-20
3.28016e-21
2.11009e-20
3.44475e-21
1.93883e-20
3.57809e-21
1.76276e-20
3.68219e-21
1.58332e-20
3.75117e-21
1.40244e-20
3.78515e-21
1.22185e-20
3.77814e-21
1.04378e-20
3.72937e-21
8.70538e-21
3.63434e-21
7.043e-21
3.48753e-21
5.47345e-21
3.28549e-21
4.03422e-21
3.03688e-21
2.74649e-21
2.7105e-21
1.65491e-21
2.3057e-21
8.22531e-22
1.82931e-21
2.3589e-22
1.22161e-21
5.05655e-22
1.11756e-22
-6.908e-22
6.29787e-22
-1.80156e-21
1.39705e-21
-2.67916e-21
2.40775e-21
-3.3837e-21
3.57884e-21
-3.94497e-21
4.91734e-21
-4.42527e-21
6.38085e-21
-4.7909e-21
7.93266e-21
-5.07898e-21
9.54756e-21
-5.28894e-21
1.12075e-20
-5.42321e-21
1.28892e-20
-5.49016e-21
1.4571e-20
-5.49586e-21
1.62376e-20
-5.44588e-21
1.78731e-20
-5.34107e-21
1.94597e-20
-5.18656e-21
2.09845e-20
-4.98562e-21
2.2435e-20
-4.74253e-21
2.37987e-20
-4.45917e-21
2.50644e-20
-4.14105e-21
2.62233e-20
-3.79042e-21
2.72662e-20
-3.41156e-21
2.8186e-20
-3.00641e-21
2.89756e-20
-2.58084e-21
2.96312e-20
-2.13776e-21
3.01446e-20
-1.68388e-21
3.05109e-20
-1.21631e-21
3.07303e-20
-7.33786e-22
3.08019e-20
-2.38558e-22
3.07235e-20
2.59664e-22
3.04982e-20
7.54967e-22
3.01278e-20
1.23926e-21
2.96109e-20
1.70904e-21
2.89525e-20
2.16441e-21
2.81603e-20
2.60585e-21
2.72398e-20
3.02846e-21
2.61964e-20
3.42948e-21
2.50377e-20
3.80419e-21
2.37725e-20
4.14955e-21
2.24106e-20
4.46222e-21
2.09617e-20
4.73916e-21
1.94383e-20
4.9756e-21
1.78544e-20
5.1711e-21
1.62236e-20
5.32166e-21
1.45607e-20
5.42358e-21
1.28836e-20
5.4714e-21
1.12105e-20
5.46279e-21
9.56059e-21
5.39177e-21
7.95333e-21
5.25148e-21
6.41459e-21
5.04274e-21
4.9675e-21
4.75714e-21
3.63154e-21
4.37102e-21
2.45713e-21
3.90372e-21
1.46949e-21
3.33215e-21
6.8322e-22
2.60997e-21
1.80167e-22
1.73646e-21
6.865e-22
1.37285e-22
-8.40446e-22
5.84255e-22
-2.25754e-21
1.25012e-21
-3.34159e-21
2.14396e-21
-4.28068e-21
3.22996e-21
-5.03512e-21
4.4433e-21
-5.63707e-21
5.77755e-21
-6.12369e-21
7.20002e-21
-6.49971e-21
8.68373e-21
-6.76665e-21
1.02079e-20
-6.9411e-21
1.17536e-20
-7.03257e-21
1.33017e-20
-7.04175e-21
1.48345e-20
-6.97567e-21
1.63377e-20
-6.84145e-21
1.77973e-20
-6.64305e-21
1.92006e-20
-6.38493e-21
2.05347e-20
-6.07195e-21
2.17893e-20
-5.7091e-21
2.29543e-20
-5.3009e-21
2.40206e-20
-4.85169e-21
2.49801e-20
-4.3658e-21
2.58258e-20
-3.84821e-21
2.65517e-20
-3.30339e-21
2.71524e-20
-2.73587e-21
2.76216e-20
-2.15051e-21
2.79555e-20
-1.5485e-21
2.81548e-20
-9.31009e-22
2.82197e-20
-3.0286e-22
2.81513e-20
3.28824e-22
2.79483e-20
9.58128e-22
2.76106e-20
1.57633e-21
2.7137e-20
2.17843e-21
2.65332e-20
2.76261e-21
2.58036e-20
3.32829e-21
2.49556e-20
3.87005e-21
2.39942e-20
4.38397e-21
2.29276e-20
4.86449e-21
2.17625e-20
5.30844e-21
2.05087e-20
5.71021e-21
1.9176e-20
6.06631e-21
1.77753e-20
6.37297e-21
1.6318e-20
6.62593e-21
1.48177e-20
6.81959e-21
1.32884e-20
6.95031e-21
1.17458e-20
7.01284e-21
1.02061e-20
7.00085e-21
8.68721e-21
6.90838e-21
7.21225e-21
6.73239e-21
5.80079e-21
6.45911e-21
4.47182e-21
6.07931e-21
3.26113e-21
5.60143e-21
2.18429e-21
4.99324e-21
1.27923e-21
4.22131e-21
6.09646e-22
3.30714e-21
1.69121e-22
2.1799e-21
8.55741e-22
1.58694e-22
-1.00337e-21
5.04612e-22
-2.58462e-21
1.12813e-21
-3.95687e-21
1.92257e-21
-5.06787e-21
2.88445e-21
-5.99175e-21
3.98053e-21
-6.73197e-21
5.18782e-21
-7.32647e-21
6.4766e-21
-7.7805e-21
7.82582e-21
-8.10672e-21
9.21494e-21
-8.32274e-21
1.06216e-20
-8.43294e-21
1.20306e-20
-8.44465e-21
1.34279e-20
-8.36691e-21
1.47987e-20
-8.20609e-21
1.61298e-20
-7.96716e-21
1.74094e-20
-7.65717e-21
1.8626e-20
-7.28117e-21
1.97696e-20
-6.84576e-21
2.08313e-20
-6.35564e-21
2.18033e-20
-5.81684e-21
2.26778e-20
-5.23435e-21
2.34484e-20
-4.61393e-21
2.4109e-20
-3.96e-21
2.46549e-20
-3.27875e-21
2.50811e-20
-2.57418e-21
2.53855e-20
-1.85057e-21
2.55671e-20
-1.1109e-21
2.56267e-20
-3.61032e-22
2.55642e-20
3.92598e-22
2.53801e-20
1.14213e-21
2.50729e-20
1.88062e-21
2.46428e-20
2.60272e-21
2.40922e-20
3.3048e-21
2.34278e-20
3.98322e-21
2.26545e-20
4.63323e-21
2.17785e-20
5.24966e-21
2.08054e-20
5.82727e-21
1.97433e-20
6.36059e-21
1.85993e-20
6.84502e-21
1.73835e-20
7.2748e-21
1.61062e-20
7.64483e-21
1.47785e-20
7.9493e-21
1.34106e-20
8.18374e-21
1.20165e-20
8.34125e-21
1.06099e-20
8.4158e-21
9.20683e-21
8.40135e-21
7.82498e-21
8.29073e-21
6.48202e-21
8.07221e-21
5.19922e-21
7.74315e-21
3.99994e-21
7.29518e-21
2.89951e-21
6.69523e-21
1.93887e-21
5.94793e-21
1.14158e-21
5.04861e-21
5.13712e-22
3.92422e-21
1.25616e-22
2.57421e-21
9.81863e-22
1.09034e-22
-1.10537e-21
4.56828e-22
-2.91597e-21
9.90564e-22
-4.47663e-21
1.70233e-21
-5.77309e-21
2.55375e-21
-6.84359e-21
3.53293e-21
-7.71023e-21
4.61127e-21
-8.40206e-21
5.76568e-21
-8.93048e-21
6.97675e-21
-9.31361e-21
8.22459e-21
-9.5666e-21
9.49044e-21
-9.6954e-21
1.07601e-20
-9.71111e-21
1.20193e-20
-9.62281e-21
1.32549e-20
-9.43748e-21
1.44552e-20
-9.16282e-21
1.56085e-20
-8.80602e-21
1.67052e-20
-8.37381e-21
1.77359e-20
-7.87269e-21
1.86929e-20
-7.30895e-21
1.95683e-20
-6.68899e-21
2.03561e-20
-6.01905e-21
2.10497e-20
-5.30497e-21
2.16445e-20
-4.55277e-21
2.21354e-20
-3.76827e-21
2.25194e-20
-2.95687e-21
2.27936e-20
-2.12375e-21
2.29578e-20
-1.27396e-21
2.30117e-20
-4.13551e-22
2.29555e-20
4.4994e-22
2.27887e-20
1.30913e-21
2.25112e-20
2.15679e-21
2.21237e-20
2.98672e-21
2.16291e-20
3.7945e-21
2.10312e-20
4.57515e-21
2.03347e-20
5.32321e-21
1.95448e-20
6.03264e-21
1.86678e-20
6.6979e-21
1.77096e-20
7.31256e-21
1.66785e-20
7.87087e-21
1.55826e-20
8.36687e-21
1.44311e-20
8.79412e-21
1.32333e-20
9.14619e-21
1.20004e-20
9.41646e-21
1.07437e-20
9.59783e-21
9.47676e-21
9.68353e-21
8.21396e-21
9.6652e-21
6.97066e-21
9.53401e-21
5.76467e-21
9.28392e-21
4.6154e-21
8.90044e-21
3.54082e-21
8.36565e-21
2.56658e-21
7.68283e-21
1.70634e-21
6.8252e-21
9.87805e-22
5.74868e-21
4.65059e-22
4.46122e-21
1.28969e-22
2.91415e-21
1.11091e-21
9.86545e-23
-1.19938e-21
4.02854e-22
-3.20933e-21
8.67666e-22
-4.93508e-21
1.48608e-21
-6.39094e-21
2.23368e-21
-7.59229e-21
3.09375e-21
-8.5718e-21
4.04345e-21
-9.35293e-21
5.06344e-21
-9.95174e-21
6.13561e-21
-1.03865e-20
7.24049e-21
-1.0672e-20
8.36315e-21
-1.08189e-20
9.49009e-21
-1.08387e-20
1.06082e-20
-1.0741e-20
1.17061e-20
-1.05346e-20
1.27725e-20
-1.02284e-20
1.37973e-20
-9.83022e-21
1.47718e-20
-9.3478e-21
1.56878e-20
-8.78828e-21
1.65378e-20
-8.15903e-21
1.73156e-20
-7.46668e-21
1.80151e-20
-6.7184e-21
1.86312e-20
-5.92085e-21
1.91591e-20
-5.0807e-21
1.95949e-20
-4.20406e-21
1.99356e-20
-3.29768e-21
2.01792e-20
-2.36732e-21
2.03251e-20
-1.41956e-21
2.03732e-20
-4.61114e-22
2.03232e-20
5.00608e-22
2.0175e-20
1.458e-21
1.99283e-20
2.4034e-21
1.95843e-20
3.33039e-21
1.91451e-20
4.2329e-21
1.8614e-20
5.10495e-21
1.7995e-20
5.94047e-21
1.72932e-20
6.73311e-21
1.65136e-20
7.47611e-21
1.5662e-20
8.16299e-21
1.47454e-20
8.7869e-21
1.37714e-20
9.34128e-21
1.27478e-20
9.81887e-21
1.16837e-20
1.02124e-20
1.05884e-20
1.05141e-20
9.4724e-21
1.07164e-20
8.34765e-21
1.08109e-20
7.22717e-21
1.0789e-20
6.12566e-21
1.06414e-20
5.0586e-21
1.03552e-20
4.04247e-21
9.92052e-21
3.09639e-21
9.32828e-21
2.23646e-21
8.54811e-21
1.48805e-21
7.56726e-21
8.70674e-22
6.38285e-21
3.89302e-22
4.93656e-21
9.59813e-23
3.2073e-21
1.20698e-21
9.47727e-23
-1.29196e-21
3.41653e-22
-3.45623e-21
7.42373e-22
-5.3358e-21
1.27329e-21
-6.92271e-21
1.91984e-21
-8.24157e-21
2.66424e-21
-9.31957e-21
3.48612e-21
-1.01789e-20
4.37017e-21
-1.08399e-20
5.30125e-21
-1.13205e-20
6.26205e-21
-1.16359e-20
7.23956e-21
-1.17994e-20
8.22119e-21
-1.1823e-20
9.19587e-21
-1.17175e-20
1.0153e-20
-1.14932e-20
1.10827e-20
-1.11595e-20
1.19765e-20
-1.07253e-20
1.28265e-20
-1.0199e-20
1.36253e-20
-9.58857e-21
1.43667e-20
-8.90174e-21
1.50449e-20
-8.14615e-21
1.56549e-20
-7.32949e-21
1.61919e-20
-6.45879e-21
1.66521e-20
-5.54147e-21
1.70319e-20
-4.58464e-21
1.73288e-20
-3.59542e-21
1.75414e-20
-2.58061e-21
1.76687e-20
-1.54725e-21
1.77104e-20
-5.0274e-22
1.76664e-20
5.4523e-22
1.75365e-20
1.58874e-21
1.73212e-20
2.62011e-21
1.70212e-20
3.63189e-21
1.66383e-20
4.61723e-21
1.61753e-20
5.56933e-21
1.56359e-20
6.48151e-21
1.50239e-20
7.3466e-21
1.43441e-20
8.15753e-21
1.36015e-20
8.90721e-21
1.2802e-20
9.58828e-21
1.19522e-20
1.01932e-20
1.10593e-20
1.07143e-20
1.0131e-20
1.11434e-20
9.17566e-21
1.14722e-20
8.2027e-21
1.16923e-20
7.22254e-21
1.17944e-20
6.24721e-21
1.17684e-20
5.28954e-21
1.16032e-20
4.36297e-21
1.12889e-20
3.48208e-21
1.08106e-20
2.66402e-21
1.01485e-20
1.9261e-21
9.2953e-21
1.27699e-21
8.22974e-21
7.3603e-22
6.91047e-21
3.41813e-22
5.33045e-21
9.20686e-23
3.45825e-21
1.299e-21
7.51548e-23
-1.36913e-21
2.84347e-22
-3.66671e-21
6.21378e-22
-5.67424e-21
1.06911e-21
-7.37284e-21
1.615e-21
-8.79024e-21
2.24229e-21
-9.95061e-21
2.9369e-21
-1.08775e-20
3.68587e-21
-1.15917e-20
4.47433e-21
-1.21117e-20
5.2893e-21
-1.24535e-20
6.11957e-21
-1.26321e-20
6.95422e-21
-1.26593e-20
7.78305e-21
-1.25477e-20
8.59693e-21
-1.23084e-20
9.38792e-21
-1.19516e-20
1.01485e-20
-1.14868e-20
1.08717e-20
-1.09231e-20
1.15514e-20
-1.02691e-20
1.21821e-20
-9.53332e-21
1.27591e-20
-8.72398e-21
1.32779e-20
-7.84887e-21
1.37347e-20
-6.91608e-21
1.41259e-20
-5.93343e-21
1.44489e-20
-4.9086e-21
1.47015e-20
-3.84899e-21
1.48823e-20
-2.76223e-21
1.49906e-20
-1.6559e-21
1.50261e-20
-5.37823e-22
1.49884e-20
5.83737e-22
1.48775e-20
1.70073e-21
1.4694e-20
2.80489e-21
1.44385e-20
3.8886e-21
1.41127e-20
4.94425e-21
1.37189e-20
5.96444e-21
1.32601e-20
6.94168e-21
1.27394e-20
7.86856e-21
1.21608e-20
8.73744e-21
1.15288e-20
9.54052e-21
1.08485e-20
1.02701e-20
1.01253e-20
1.0918e-20
9.36533e-21
1.14758e-20
8.57527e-21
1.19351e-20
7.76247e-21
1.22868e-20
6.9351e-21
1.25215e-20
6.10217e-21
1.26292e-20
5.27383e-21
1.25994e-20
4.46169e-21
1.24204e-20
3.67697e-21
1.20781e-20
2.93168e-21
1.15587e-20
2.24126e-21
1.08499e-20
1.61751e-21
9.92678e-21
1.07375e-21
8.76699e-21
6.25496e-22
7.36154e-21
2.81366e-22
5.67224e-21
6.90304e-23
3.66574e-21
1.36791e-21
5.8799e-23
-1.42783e-21
2.30365e-22
-3.84038e-21
5.0477e-22
-5.95047e-21
8.70181e-22
-7.74035e-21
1.31457e-21
-9.23723e-21
1.82628e-21
-1.04649e-20
2.39478e-21
-1.14479e-20
3.00797e-21
-1.22066e-20
3.65399e-21
-1.27594e-20
4.32273e-21
-1.31236e-20
5.00424e-21
-1.33144e-20
5.68959e-21
-1.33451e-20
6.37037e-21
-1.32289e-20
7.03928e-21
-1.29777e-20
7.68934e-21
-1.2602e-20
8.3145e-21
-1.2112e-20
8.90893e-21
-1.15175e-20
9.46781e-21
-1.08279e-20
9.98637e-21
-1.00518e-20
1.04607e-20
-9.1982e-21
1.08871e-20
-8.2753e-21
1.12626e-20
-7.2918e-21
1.15841e-20
-6.25547e-21
1.18493e-20
-5.17468e-21
1.20567e-20
-4.05725e-21
1.22052e-20
-2.91138e-21
1.22943e-20
-1.74497e-21
1.23236e-20
-5.66504e-22
1.22927e-20
6.15641e-22
1.22014e-20
1.79288e-21
1.20501e-20
2.95686e-21
1.18397e-20
4.09937e-21
1.15717e-20
5.21257e-21
1.12478e-20
6.28856e-21
1.08703e-20
7.31939e-21
1.04419e-20
8.29705e-21
9.96613e-21
9.21347e-21
9.44641e-21
1.00606e-20
8.88695e-21
1.083e-20
8.29224e-21
1.15131e-20
7.66735e-21
1.21012e-20
7.01786e-21
1.25852e-20
6.34986e-21
1.29554e-20
5.67015e-21
1.32018e-20
4.98618e-21
1.33142e-20
4.30675e-21
1.32807e-20
3.64117e-21
1.30881e-20
2.99864e-21
1.27243e-20
2.38987e-21
1.21743e-20
1.82566e-21
1.14166e-20
1.31873e-21
1.04363e-20
8.75489e-22
9.21837e-21
5.05214e-22
7.72493e-21
2.30223e-22
5.93714e-21
6.15953e-23
3.8364e-21
1.42948e-21
4.64251e-23
-1.4753e-21
1.79112e-22
-3.97328e-21
3.90907e-22
-6.1632e-21
6.73867e-22
-8.02458e-21
1.01863e-21
-9.58373e-21
1.41715e-21
-1.08648e-20
1.85963e-21
-1.18918e-20
2.33659e-21
-1.2685e-20
2.83966e-21
-1.32636e-20
3.36083e-21
-1.36454e-20
3.8925e-21
-1.38462e-20
4.42711e-21
-1.38798e-20
4.95826e-21
-1.37601e-20
5.48036e-21
-1.34998e-20
5.98798e-21
-1.31095e-20
6.47602e-21
-1.26e-20
6.94016e-21
-1.19815e-20
7.37639e-21
-1.1264e-20
7.78131e-21
-1.04565e-20
8.15169e-21
-9.56835e-21
8.48463e-21
-8.60822e-21
8.77748e-21
-7.5848e-21
9.02831e-21
-6.50683e-21
9.23541e-21
-5.38252e-21
9.39749e-21
-4.22016e-21
9.51366e-21
-3.0279e-21
9.58333e-21
-1.81428e-21
9.60589e-21
-5.88274e-22
9.58119e-21
6.41086e-22
9.50951e-21
1.86508e-21
9.39108e-21
3.07547e-21
9.22662e-21
4.26394e-21
9.01708e-21
5.42216e-21
8.76387e-21
6.54172e-21
8.46886e-21
7.61426e-21
8.13425e-21
8.63153e-21
7.76256e-21
9.58514e-21
7.35662e-21
1.04666e-20
6.91959e-21
1.12671e-20
6.45507e-21
1.19778e-20
5.96704e-21
1.25895e-20
5.45984e-21
1.30927e-20
4.93831e-21
1.34773e-20
4.40796e-21
1.37327e-20
3.87469e-21
1.38481e-20
3.34496e-21
1.38114e-20
2.82694e-21
1.36095e-20
2.32777e-21
1.32277e-20
1.85396e-21
1.26483e-20
1.41726e-21
1.1859e-20
1.02498e-21
1.08388e-20
6.79234e-22
9.55762e-21
3.93877e-22
8.00382e-21
1.80741e-22
6.15411e-21
4.48574e-23
3.96464e-21
1.47405e-21
3.32824e-23
-1.50784e-21
1.27468e-22
-4.06821e-21
2.79294e-22
-6.31488e-21
4.81707e-22
-8.22761e-21
7.28529e-22
-9.83135e-21
1.01332e-21
-1.11507e-20
1.32915e-21
-1.2209e-20
1.66997e-21
-1.3027e-20
2.03011e-21
-1.36244e-20
2.40315e-21
-1.40188e-20
2.78371e-21
-1.42269e-20
3.16638e-21
-1.42625e-20
3.54696e-21
-1.41408e-20
3.92103e-21
-1.38739e-20
4.28471e-21
-1.34731e-20
4.63428e-21
-1.29495e-20
4.96676e-21
-1.2314e-20
5.27919e-21
-1.15764e-20
5.56922e-21
-1.07465e-20
5.83438e-21
-9.83338e-21
6.07275e-21
-8.84659e-21
6.28243e-21
-7.79479e-21
6.46222e-21
-6.68687e-21
6.61063e-21
-5.53116e-21
6.72691e-21
-4.33626e-21
6.81016e-21
-3.11064e-21
6.85993e-21
-1.86354e-21
6.87577e-21
-6.03935e-22
6.85774e-21
6.59157e-22
6.80579e-21
1.91694e-21
6.72048e-21
3.16084e-21
6.6023e-21
4.38225e-21
6.45188e-21
5.57257e-21
6.27028e-21
6.72326e-21
6.05865e-21
7.82583e-21
5.8187e-21
8.87148e-21
5.55213e-21
9.8518e-21
5.26104e-21
1.07577e-20
4.94773e-21
1.15805e-20
4.61477e-21
1.23109e-20
4.26501e-21
1.29395e-20
3.90157e-21
1.34564e-20
3.52793e-21
1.38514e-20
3.14804e-21
1.41129e-20
2.76642e-21
1.42303e-20
2.38778e-21
1.41919e-20
2.01801e-21
1.39813e-20
1.66129e-21
1.35859e-20
1.32456e-21
1.29912e-20
1.01362e-21
1.21747e-20
7.32929e-22
1.1116e-20
4.9105e-22
9.80532e-21
2.85023e-22
8.20926e-21
1.24802e-22
6.29668e-21
3.06731e-23
4.06037e-21
1.50464e-21
1.95028e-23
-1.52835e-21
7.75111e-23
-4.1249e-21
1.69777e-22
-6.40651e-21
2.92267e-22
-8.34985e-21
4.41191e-22
-9.98047e-21
6.12331e-22
-1.13226e-20
8.01973e-22
-1.23995e-20
1.00684e-21
-1.32325e-20
1.22364e-21
-1.38416e-20
1.44879e-21
-1.42439e-20
1.67691e-21
-1.44549e-20
1.90678e-21
-1.44924e-20
2.13631e-21
-1.43703e-20
2.36169e-21
-1.40991e-20
2.58019e-21
-1.36914e-20
2.79025e-21
-1.31595e-20
2.98999e-21
-1.25138e-20
3.17781e-21
-1.17642e-20
3.35208e-21
-1.09206e-20
3.51143e-21
-9.99267e-21
3.65444e-21
-8.98966e-21
3.78042e-21
-7.92048e-21
3.88834e-21
-6.79412e-21
3.97784e-21
-5.61936e-21
4.0481e-21
-4.40497e-21
4.09845e-21
-3.15978e-21
4.12801e-21
-1.8929e-21
4.13682e-21
-6.13326e-22
4.12509e-21
6.69857e-22
4.09338e-21
1.94791e-21
4.04183e-21
3.212e-21
3.97049e-21
4.45339e-21
3.87959e-21
5.66324e-21
3.76988e-21
6.83279e-21
3.64219e-21
7.95334e-21
3.49754e-21
9.01611e-21
3.33688e-21
1.00124e-20
3.16149e-21
1.09331e-20
2.97276e-21
1.17692e-20
2.77237e-21
1.25113e-20
2.56198e-21
1.31499e-20
2.34359e-21
1.3675e-20
2.11869e-21
1.40765e-20
1.8897e-21
1.43422e-20
1.66044e-21
1.446e-20
1.43408e-21
1.44187e-20
1.21205e-21
1.42056e-20
9.993e-22
1.3803e-20
7.97559e-22
1.3192e-20
6.13004e-22
1.23606e-20
4.49307e-22
1.12927e-20
2.97947e-22
9.9503e-21
1.71794e-22
8.32097e-21
8.42135e-23
6.39152e-21
2.19053e-23
4.11187e-21
1.52605e-21
7.51077e-24
-1.53472e-21
2.78114e-23
-4.14523e-21
6.11245e-23
-6.43861e-21
1.04342e-22
-8.39172e-21
1.55263e-22
-1.00311e-20
2.13228e-22
-1.13807e-20
2.7696e-22
-1.24636e-20
3.45521e-22
-1.33013e-20
4.17602e-22
-1.39133e-20
4.92347e-22
-1.43183e-20
5.69962e-22
-1.45324e-20
6.50712e-22
-1.45728e-20
7.28071e-22
-1.44472e-20
8.01884e-22
-1.41725e-20
8.74296e-22
-1.37635e-20
9.4434e-22
-1.32293e-20
1.01097e-21
-1.25802e-20
1.07358e-21
-1.18266e-20
1.13157e-21
-1.09785e-20
1.18452e-21
-1.00455e-20
1.232e-21
-9.03671e-21
1.27382e-21
-7.96151e-21
1.30998e-21
-6.82882e-21
1.34037e-21
-5.64755e-21
1.36424e-21
-4.42667e-21
1.38104e-21
-3.17531e-21
1.39033e-21
-1.90232e-21
1.39231e-21
-6.16532e-22
1.38736e-21
6.73242e-22
1.37593e-21
1.95822e-21
1.35804e-21
3.22928e-21
1.33357e-21
4.47748e-21
1.30259e-21
5.69387e-21
1.26521e-21
6.8698e-21
1.22194e-21
7.99633e-21
1.17289e-21
9.06495e-21
1.11863e-21
1.00664e-20
1.05942e-21
1.09921e-20
9.95856e-22
1.18324e-20
9.28509e-22
1.25784e-20
8.5814e-22
1.32202e-20
7.85595e-22
1.37475e-20
7.12022e-22
1.41499e-20
6.35043e-22
1.4419e-20
5.54835e-22
1.454e-20
4.7891e-22
1.44958e-20
4.0712e-22
1.42785e-20
3.38355e-22
1.38712e-20
2.74062e-22
1.32616e-20
2.14555e-22
1.24261e-20
1.5954e-22
1.13398e-20
1.14686e-22
9.99741e-21
6.98985e-23
8.36947e-21
2.28772e-23
6.41394e-21
2.47774e-24
4.13315e-21
1.52841e-21
-5.26194e-24
-1.53038e-21
-2.0466e-23
-4.12744e-21
-4.6281e-23
-6.40995e-21
-8.32993e-23
-8.35324e-21
-1.29765e-22
-9.98355e-21
-1.84869e-22
-1.13252e-20
-2.46913e-22
-1.24015e-20
-3.13736e-22
-1.32342e-20
-3.83855e-22
-1.38427e-20
-4.5688e-22
-1.42447e-20
-5.33059e-22
-1.44556e-20
-6.12517e-22
-1.44928e-20
-6.88758e-22
-1.43704e-20
-7.61654e-22
-1.40991e-20
-8.33412e-22
-1.36913e-20
-9.02988e-22
-1.31593e-20
-9.69378e-22
-1.25134e-20
-1.03199e-21
-1.17637e-20
-1.09023e-21
-1.09199e-20
-1.14376e-21
-9.99163e-21
-1.19188e-21
-8.98812e-21
-1.2342e-21
-7.91847e-21
-1.27003e-21
-6.7914e-21
-1.29956e-21
-5.61629e-21
-1.32253e-21
-4.40197e-21
-1.33951e-21
-3.15765e-21
-1.3503e-21
-1.89175e-21
-1.3549e-21
-6.13081e-22
-1.35256e-21
6.70037e-22
-1.34348e-21
1.94832e-21
-1.32748e-21
3.21293e-21
-1.30507e-21
4.45454e-21
-1.27607e-21
5.66459e-21
-1.24102e-21
6.83428e-21
-1.19981e-21
7.95503e-21
-1.15308e-21
9.01785e-21
-1.10083e-21
1.0014e-20
-1.04377e-21
1.09345e-20
-9.81987e-22
1.17704e-20
-9.16333e-22
1.25124e-20
-8.47113e-22
1.31507e-20
-7.75636e-22
1.36756e-20
-7.02734e-22
1.40767e-20
-6.2633e-22
1.43421e-20
-5.46053e-22
1.44596e-20
-4.6887e-22
1.44177e-20
-3.934e-22
1.42043e-20
-3.1975e-22
1.38016e-20
-2.50128e-22
1.31897e-20
-1.82725e-22
1.23573e-20
-1.1997e-22
1.12909e-20
-7.85945e-23
9.94888e-21
-4.65494e-23
8.31604e-21
-1.18135e-23
6.38942e-21
-1.67162e-24
4.10982e-21
1.52614e-21
-1.87394e-23
-1.50991e-21
-6.96186e-23
-4.07362e-21
-1.54619e-22
-6.32204e-21
-2.70725e-22
-8.23394e-21
-4.15364e-22
-9.83721e-21
-5.84037e-22
-1.11556e-20
-7.7228e-22
-1.22126e-20
-9.75758e-22
-1.30299e-20
-1.19101e-21
-1.36265e-20
-1.41446e-21
-1.40202e-20
-1.64107e-21
-1.4228e-20
-1.86987e-21
-1.4263e-20
-2.09845e-21
-1.41409e-20
-2.32288e-21
-1.38738e-20
-2.54069e-21
-1.34727e-20
-2.75022e-21
-1.29489e-20
-2.94979e-21
-1.23131e-20
-3.13745e-21
-1.15752e-20
-3.31186e-21
-1.0745e-20
-3.47131e-21
-9.83153e-21
-3.61491e-21
-8.84403e-21
-3.74115e-21
-7.79121e-21
-3.84952e-21
-6.68225e-21
-3.93884e-21
-5.52592e-21
-4.00907e-21
-4.33124e-21
-4.05955e-21
-3.10672e-21
-4.09043e-21
-1.86098e-21
-4.101e-21
-6.02397e-22
-4.09159e-21
6.60308e-22
-4.06162e-21
1.91831e-21
-4.01191e-21
3.16271e-21
-3.94225e-21
4.38473e-21
-3.85372e-21
5.57557e-21
-3.74612e-21
6.72662e-21
-3.62092e-21
7.82931e-21
-3.47822e-21
8.87493e-21
-3.31985e-21
9.85505e-21
-3.14633e-21
1.07607e-20
-2.95959e-21
1.15831e-20
-2.76056e-21
1.2313e-20
-2.55161e-21
1.2941e-20
-2.33403e-21
1.34574e-20
-2.10999e-21
1.38518e-20
-1.88143e-21
1.41126e-20
-1.65236e-21
1.42292e-20
-1.42444e-21
1.41904e-20
-1.19901e-21
1.39786e-20
-9.81166e-22
1.35814e-20
-7.73532e-22
1.29877e-20
-5.82047e-22
1.21722e-20
-4.12353e-22
1.11081e-20
-2.60208e-22
9.79738e-21
-1.44939e-22
8.20752e-21
-7.82316e-23
6.29164e-21
-2.3992e-23
4.0567e-21
1.50201e-21
-2.98539e-23
-1.47974e-21
-1.18321e-22
-3.98017e-21
-2.6269e-22
-6.17171e-21
-4.6008e-22
-8.03294e-21
-7.0311e-22
-9.59128e-21
-9.85531e-22
-1.08712e-20
-1.30033e-21
-1.18964e-20
-1.6405e-21
-1.26884e-20
-1.99925e-21
-1.32659e-20
-2.37103e-21
-1.36467e-20
-2.75037e-21
-1.38469e-20
-3.13199e-21
-1.38798e-20
-3.51158e-21
-1.37597e-20
-3.8851e-21
-1.34988e-20
-4.24796e-21
-1.31082e-20
-4.59719e-21
-1.25983e-20
-4.92914e-21
-1.19795e-20
-5.24165e-21
-1.12615e-20
-5.53146e-21
-1.04538e-20
-5.79698e-21
-9.56503e-21
-6.03534e-21
-8.6044e-21
-6.24546e-21
-7.58031e-21
-6.42532e-21
-6.50161e-21
-6.57443e-21
-5.3766e-21
-6.69118e-21
-4.21418e-21
-6.77539e-21
-3.02243e-21
-6.82579e-21
-1.81011e-21
-6.84271e-21
-5.85056e-22
-6.82563e-21
6.4382e-22
-6.77554e-21
1.86831e-21
-6.69201e-21
3.07917e-21
-6.57596e-21
4.2683e-21
-6.42747e-21
5.42677e-21
-6.24806e-21
6.54665e-21
-6.03853e-21
7.61922e-21
-5.8009e-21
8.63658e-21
-5.53636e-21
9.58979e-21
-5.24729e-21
1.04707e-20
-4.93557e-21
1.12704e-20
-4.60412e-21
1.19805e-20
-4.2555e-21
1.25912e-20
-3.89307e-21
1.30936e-20
-3.52016e-21
1.34771e-20
-3.14084e-21
1.37317e-20
-2.75914e-21
1.3846e-20
-2.37931e-21
1.38077e-20
-2.00591e-21
1.36048e-20
-1.64378e-21
1.3224e-20
-1.30246e-21
1.26409e-20
-9.83035e-22
1.18477e-20
-6.92969e-22
1.0835e-20
-4.57554e-22
9.55234e-21
-2.66614e-22
7.9879e-21
-1.08522e-22
6.1462e-21
-2.60619e-23
3.95759e-21
1.47511e-21
-4.47109e-23
-1.43248e-21
-1.68534e-22
-3.84848e-21
-3.73903e-22
-5.96097e-21
-6.51388e-22
-7.74951e-21
-9.93893e-22
-9.24473e-21
-1.39095e-21
-1.04716e-20
-1.83274e-21
-1.14526e-20
-2.30932e-21
-1.22097e-20
-2.81189e-21
-1.27612e-20
-3.3321e-21
-1.31243e-20
-3.86275e-21
-1.33141e-20
-4.39637e-21
-1.33441e-20
-4.92701e-21
-1.32272e-20
-5.44847e-21
-1.29755e-20
-5.95552e-21
-1.25993e-20
-6.44294e-21
-1.21089e-20
-6.90676e-21
-1.15139e-20
-7.34279e-21
-1.08239e-20
-7.7476e-21
-1.00474e-20
-8.11783e-21
-9.19349e-21
-8.45068e-21
-8.27012e-21
-8.74401e-21
-7.28624e-21
-8.9954e-21
-6.24954e-21
-9.20345e-21
-5.16868e-21
-9.36629e-21
-4.05119e-21
-9.48332e-21
-2.90557e-21
-9.55328e-21
-1.73931e-21
-9.57663e-21
-5.6124e-22
-9.55258e-21
6.20718e-22
-9.48213e-21
1.79778e-21
-9.36483e-21
2.96216e-21
-9.20233e-21
4.10508e-21
-8.99451e-21
5.21891e-21
-8.74382e-21
6.29505e-21
-8.45073e-21
7.32604e-21
-8.11865e-21
8.30334e-21
-7.74869e-21
9.21929e-21
-7.34489e-21
1.00655e-20
-6.90916e-21
1.08339e-20
-6.44626e-21
1.15158e-20
-5.95899e-21
1.21027e-20
-5.45302e-21
1.25852e-20
-4.93184e-21
1.29542e-20
-4.40219e-21
1.31991e-20
-3.86885e-21
1.331e-20
-3.33802e-21
1.32761e-20
-2.81573e-21
1.30822e-20
-2.31253e-21
1.27139e-20
-1.83199e-21
1.21662e-20
-1.38858e-21
1.14126e-20
-9.93745e-22
1.04189e-20
-6.41443e-22
9.19898e-21
-3.63559e-22
7.72065e-21
-1.81506e-22
5.92479e-21
-5.28887e-23
3.82778e-21
1.42195e-21
-5.57948e-23
-1.37432e-21
-2.19926e-22
-3.67759e-21
-4.85442e-22
-5.68555e-21
-8.46518e-22
-7.38216e-21
-1.28986e-21
-8.79737e-21
-1.80194e-21
-9.95615e-21
-2.37113e-21
-1.08813e-20
-2.98423e-21
-1.15944e-20
-3.63036e-21
-1.21133e-20
-4.29825e-21
-1.24539e-20
-4.97961e-21
-1.26312e-20
-5.66392e-21
-1.26578e-20
-6.34465e-21
-1.25457e-20
-7.01241e-21
-1.23058e-20
-7.66262e-21
-1.19483e-20
-8.28652e-21
-1.14828e-20
-8.88158e-21
-1.09186e-20
-9.43918e-21
-1.02641e-20
-9.95872e-21
-9.52802e-21
-1.04317e-20
-8.71823e-21
-1.08594e-20
-7.84313e-21
-1.12336e-20
-6.91023e-21
-1.1557e-20
-5.92752e-21
-1.18219e-20
-4.90248e-21
-1.20321e-20
-3.84282e-21
-1.21801e-20
-2.75592e-21
-1.22713e-20
-1.64966e-21
-1.22988e-20
-5.31715e-22
-1.22694e-20
5.89849e-22
-1.21768e-20
1.70704e-21
-1.20283e-20
2.81179e-21
-1.18178e-20
3.89629e-21
-1.15533e-20
4.95274e-21
-1.12296e-20
5.97344e-21
-1.08561e-20
6.95068e-21
-1.04283e-20
7.877e-21
-9.9562e-21
8.7451e-21
-9.4367e-21
9.54699e-21
-8.8802e-21
1.0275e-20
-8.28507e-21
1.09209e-20
-7.66254e-21
1.1477e-20
-7.01236e-21
1.19343e-20
-6.34614e-21
1.22844e-20
-5.66567e-21
1.25176e-20
-4.98236e-21
1.26245e-20
-4.3006e-21
1.25922e-20
-3.63303e-21
1.24115e-20
-2.98344e-21
1.2072e-20
-2.37054e-21
1.15475e-20
-1.80058e-21
1.08285e-20
-1.27946e-21
9.91979e-21
-8.47663e-22
8.75908e-21
-4.94285e-22
7.33011e-21
-2.08136e-22
5.65401e-21
-5.13431e-23
3.65129e-21
1.36958e-21
-7.13918e-23
-1.30023e-21
-2.71905e-22
-3.46625e-21
-6.02524e-22
-5.34727e-21
-1.04673e-21
-6.93232e-21
-1.59118e-21
-8.24847e-21
-2.22038e-21
-9.325e-21
-2.91697e-21
-1.01831e-20
-3.66711e-21
-1.08434e-20
-4.45557e-21
-1.13231e-20
-5.27134e-21
-1.16377e-20
-6.10086e-21
-1.18003e-20
-6.93565e-21
-1.18231e-20
-7.76329e-21
-1.17168e-20
-8.57769e-21
-1.14921e-20
-9.36726e-21
-1.11576e-20
-1.01283e-20
-1.0723e-20
-1.08501e-20
-1.01958e-20
-1.1531e-20
-9.58502e-21
-1.21604e-20
-8.89757e-21
-1.27387e-20
-8.14199e-21
-1.32561e-20
-7.3248e-21
-1.37144e-20
-6.45423e-21
-1.41047e-20
-5.53666e-21
-1.44299e-20
-4.58001e-21
-1.46818e-20
-3.59024e-21
-1.48649e-20
-2.57552e-21
-1.4972e-20
-1.5415e-21
-1.50088e-20
-4.96927e-22
-1.49694e-20
5.51903e-22
-1.486e-20
1.596e-21
-1.46755e-20
2.62904e-21
-1.44226e-20
3.6421e-21
-1.4097e-20
4.62917e-21
-1.37065e-20
5.58162e-21
-1.32483e-20
6.49412e-21
-1.27308e-20
7.35838e-21
-1.21531e-20
8.16874e-21
-1.1524e-20
8.91633e-21
-1.08438e-20
9.5959e-21
-1.01224e-20
1.01981e-20
-9.3621e-21
1.07171e-20
-8.57326e-21
1.11439e-20
-7.76e-21
1.14716e-20
-6.93318e-21
1.16898e-20
-6.09955e-21
1.17903e-20
-5.27038e-21
1.17635e-20
-4.4534e-21
1.15986e-20
-3.66476e-21
1.12772e-20
-2.91497e-21
1.0799e-20
-2.21561e-21
1.01472e-20
-1.59538e-21
9.27436e-21
-1.04116e-21
8.19685e-21
-5.91375e-22
6.90407e-21
-2.8881e-22
5.30997e-21
-8.29058e-23
3.44472e-21
1.28647e-21
-8.55642e-23
-1.21229e-21
-3.27074e-22
-3.21513e-21
-7.23038e-22
-4.94565e-21
-1.25344e-21
-6.39671e-21
-1.90192e-21
-7.59832e-21
-2.64812e-21
-8.57862e-21
-3.4725e-21
-9.35832e-21
-4.35893e-21
-9.95725e-21
-5.28961e-21
-1.03923e-20
-6.25112e-21
-1.06767e-20
-7.22822e-21
-1.0823e-20
-8.21076e-21
-1.08421e-20
-9.18409e-21
-1.07439e-20
-1.01417e-20
-1.0537e-20
-1.10698e-20
-1.02302e-20
-1.1965e-20
-9.8315e-21
-1.28129e-20
-9.3488e-21
-1.36136e-20
-8.78879e-21
-1.43526e-20
-8.15914e-21
-1.50335e-20
-7.46638e-21
-1.56404e-20
-6.71788e-21
-1.61806e-20
-5.91994e-21
-1.66375e-20
-5.07934e-21
-1.70215e-20
-4.20225e-21
-1.73153e-20
-3.29544e-21
-1.75322e-20
-2.36446e-21
-1.76552e-20
-1.41601e-21
-1.77007e-20
-4.56585e-22
-1.7651e-20
5.06266e-22
-1.7525e-20
1.46542e-21
-1.73047e-20
2.41309e-21
-1.70103e-20
3.34273e-21
-1.66245e-20
4.24727e-21
-1.61689e-20
5.12064e-21
-1.56268e-20
5.95631e-21
-1.50219e-20
6.74833e-21
-1.43391e-20
7.49015e-21
-1.36028e-20
8.17634e-21
-1.28e-20
8.79851e-21
-1.19553e-20
9.35079e-21
-1.10578e-20
9.82601e-21
-1.01331e-20
1.02181e-20
-9.17344e-21
1.05184e-20
-8.20405e-21
1.07201e-20
-7.22015e-21
1.08139e-20
-6.24611e-21
1.07906e-20
-5.28341e-21
1.06394e-20
-4.35503e-21
1.03557e-20
-3.46541e-21
9.9184e-21
-2.6461e-21
9.30902e-21
-1.8953e-21
8.54112e-21
-1.25499e-21
7.56933e-21
-7.36937e-22
6.34751e-21
-3.15647e-22
4.91394e-21
-7.59756e-23
3.19051e-21
1.20986e-21
-9.75478e-23
-1.11041e-21
-3.86555e-22
-2.92214e-21
-8.48197e-22
-4.47782e-21
-1.46873e-21
-5.77431e-21
-2.22191e-21
-6.84478e-21
-3.08566e-21
-7.71314e-21
-4.03969e-21
-8.40456e-21
-5.06047e-21
-8.93485e-21
-6.13353e-21
-9.31951e-21
-7.23747e-21
-9.57034e-21
-8.3623e-21
-9.69953e-21
-9.48722e-21
-9.71454e-21
-1.06075e-20
-9.6262e-21
-1.17022e-20
-9.43984e-21
-1.27712e-20
-9.16628e-21
-1.37922e-20
-8.80836e-21
-1.47705e-20
-8.37736e-21
-1.5682e-20