/*--------------------------------*- C++ -*----------------------------------*\
| =========                 |                                                 |
| \\      /  F ield         | OpenFOAM: The Open Source CFD Toolbox           |
|  \\    /   O peration     | Version:  5.0                                   |
|   \\  /    A nd           | Web:      www.OpenFOAM.org                      |
|    \\/     M anipulation  |                                                 |
\*---------------------------------------------------------------------------*/
FoamFile
{
    version     2.0;
    format      ascii;
    class       volScalarField;
    location    "259";
    object      p;
}
// * * * * * * * * * * * * * * * * * * * * * * * * * * * * * * * * * * * * * //

dimensions      [0 2 -2 0 0 0 0];

internalField   nonuniform List<scalar> 
1568
(
7.25354e-15
1.93824e-14
3.11665e-14
3.40208e-14
3.87157e-14
4.448e-14
4.70054e-14
4.98675e-14
5.28542e-14
5.5335e-14
5.76538e-14
6.00298e-14
6.23916e-14
6.46594e-14
6.69158e-14
6.92293e-14
7.15456e-14
7.39237e-14
7.63207e-14
7.88135e-14
8.13171e-14
8.39228e-14
8.64232e-14
8.83407e-14
8.97441e-14
9.17083e-14
9.4776e-14
9.93069e-14
1.04207e-13
1.08629e-13
1.1158e-13
1.13514e-13
1.14884e-13
1.16876e-13
1.19345e-13
1.21975e-13
1.24375e-13
1.26913e-13
1.29268e-13
1.31632e-13
1.33878e-13
1.36189e-13
1.38363e-13
1.40639e-13
1.4287e-13
1.452e-13
1.47549e-13
1.50071e-13
1.52725e-13
1.55604e-13
1.58834e-13
1.62735e-13
1.67298e-13
1.72014e-13
1.80632e-13
1.89515e-13
1.58569e-14
-6.09861e-15
6.39964e-14
4.35961e-14
2.65053e-14
5.28064e-14
5.11232e-14
5.03302e-14
5.61221e-14
5.92026e-14
6.05725e-14
6.27232e-14
6.52172e-14
6.72286e-14
6.95961e-14
7.19445e-14
7.4098e-14
7.6511e-14
7.88306e-14
8.12495e-14
8.34448e-14
8.60845e-14
8.83701e-14
9.12117e-14
9.35297e-14
9.65373e-14
9.87356e-14
1.01138e-13
1.01895e-13
1.05151e-13
1.07402e-13
1.10262e-13
1.11793e-13
1.14987e-13
1.1698e-13
1.20158e-13
1.21699e-13
1.24686e-13
1.26435e-13
1.28828e-13
1.30916e-13
1.33833e-13
1.35618e-13
1.3791e-13
1.39828e-13
1.42407e-13
1.44585e-13
1.47239e-13
1.49702e-13
1.53188e-13
1.57014e-13
1.60262e-13
1.65957e-13
1.65244e-13
1.81069e-13
1.85096e-13
2.5832e-14
4.37862e-14
1.01723e-14
3.44201e-14
4.30645e-14
5.05152e-14
4.77447e-14
5.26731e-14
5.63738e-14
5.57749e-14
6.022e-14
6.38827e-14
6.48801e-14
6.70417e-14
6.95352e-14
7.10465e-14
7.33015e-14
7.54681e-14
7.78236e-14
7.98327e-14
8.22256e-14
8.46427e-14
8.76134e-14
8.99455e-14
9.27758e-14
9.46196e-14
9.72308e-14
9.9954e-14
1.03259e-13
1.05379e-13
1.08008e-13
1.1095e-13
1.15252e-13
1.17584e-13
1.19852e-13
1.21669e-13
1.24572e-13
1.26057e-13
1.28436e-13
1.30592e-13
1.31954e-13
1.32722e-13
1.35446e-13
1.37423e-13
1.39943e-13
1.42154e-13
1.44571e-13
1.47173e-13
1.49908e-13
1.5257e-13
1.55119e-13
1.55433e-13
1.69129e-13
1.68392e-13
1.72616e-13
1.79061e-13
2.928e-14
4.18635e-14
5.17769e-14
4.31606e-14
5.54331e-14
5.82386e-14
5.52132e-14
6.08701e-14
6.62729e-14
6.76897e-14
6.88064e-14
7.05096e-14
7.28792e-14
7.55369e-14
7.69512e-14
7.92538e-14
8.13307e-14
8.29859e-14
8.44516e-14
8.6815e-14
8.85014e-14
9.01937e-14
9.15084e-14
9.33217e-14
9.47431e-14
9.68057e-14
9.86457e-14
1.01019e-13
1.03054e-13
1.05395e-13
1.07006e-13
1.0779e-13
1.08386e-13
1.09664e-13
1.11709e-13
1.13581e-13
1.15475e-13
1.17638e-13
1.19245e-13
1.21545e-13
1.24093e-13
1.26891e-13
1.28766e-13
1.30656e-13
1.32602e-13
1.34733e-13
1.36525e-13
1.39381e-13
1.42333e-13
1.44375e-13
1.49774e-13
1.53934e-13
1.55256e-13
1.54987e-13
1.7204e-13
1.73869e-13
3.43772e-14
2.87952e-14
4.53261e-14
4.66372e-14
5.45346e-14
5.51914e-14
5.72127e-14
6.21708e-14
6.4108e-14
6.60798e-14
6.83739e-14
7.06878e-14
7.26201e-14
7.42048e-14
7.58822e-14
7.79353e-14
7.97981e-14
8.17793e-14
8.37151e-14
8.5588e-14
8.73548e-14
8.92037e-14
9.11237e-14
9.31399e-14
9.48983e-14
9.69066e-14
9.88456e-14
1.0057e-13
1.02362e-13
1.04383e-13
1.06535e-13
1.08659e-13
1.10582e-13
1.12483e-13
1.14721e-13
1.16584e-13
1.18108e-13
1.1998e-13
1.2175e-13
1.23361e-13
1.24906e-13
1.26554e-13
1.28162e-13
1.30046e-13
1.31997e-13
1.34136e-13
1.36515e-13
1.387e-13
1.40557e-13
1.44833e-13
1.47899e-13
1.45044e-13
1.56596e-13
1.62957e-13
1.61291e-13
1.67258e-13
4.23989e-14
4.76926e-14
5.28665e-14
5.65264e-14
5.65027e-14
5.69966e-14
6.28906e-14
6.65905e-14
6.65379e-14
6.8518e-14
7.13391e-14
7.34468e-14
7.50638e-14
7.69666e-14
7.8965e-14
8.04414e-14
8.18453e-14
8.3454e-14
8.51719e-14
8.66251e-14
8.82688e-14
9.01421e-14
9.19283e-14
9.363e-14
9.53626e-14
9.6978e-14
9.88087e-14
1.00726e-13
1.02556e-13
1.04366e-13
1.06085e-13
1.07892e-13
1.09943e-13
1.11716e-13
1.13184e-13
1.14771e-13
1.16432e-13
1.18113e-13
1.19809e-13
1.21484e-13
1.23056e-13
1.24713e-13
1.26521e-13
1.28152e-13
1.30062e-13
1.3198e-13
1.3359e-13
1.36247e-13
1.38908e-13
1.39235e-13
1.43573e-13
1.49359e-13
1.4923e-13
1.45543e-13
1.59897e-13
1.61537e-13
4.87389e-14
5.4262e-14
5.67944e-14
5.8513e-14
6.15884e-14
6.51393e-14
6.85457e-14
7.02488e-14
7.19614e-14
7.42334e-14
7.62806e-14
7.77139e-14
7.91412e-14
8.07744e-14
8.23131e-14
8.38232e-14
8.53624e-14
8.67711e-14
8.81682e-14
8.96794e-14
9.11612e-14
9.24715e-14
9.37923e-14
9.51921e-14
9.66736e-14
9.81155e-14
9.95983e-14
1.01049e-13
1.02556e-13
1.04022e-13
1.05232e-13
1.06403e-13
1.07775e-13
1.09101e-13
1.10366e-13
1.11762e-13
1.13367e-13
1.14762e-13
1.16144e-13
1.17672e-13
1.193e-13
1.20885e-13
1.2244e-13
1.24003e-13
1.25733e-13
1.27407e-13
1.29116e-13
1.3131e-13
1.3295e-13
1.35672e-13
1.39555e-13
1.37256e-13
1.44844e-13
1.51506e-13
1.51104e-13
1.54511e-13
5.48877e-14
5.70034e-14
5.98925e-14
6.26703e-14
6.74072e-14
6.98326e-14
7.10654e-14
7.24959e-14
7.49303e-14
7.66337e-14
7.83248e-14
7.98362e-14
8.1345e-14
8.27649e-14
8.40636e-14
8.54254e-14
8.67976e-14
8.809e-14
8.93732e-14
9.06748e-14
9.19177e-14
9.32016e-14
9.44606e-14
9.57531e-14
9.70284e-14
9.83613e-14
9.96238e-14
1.00908e-13
1.02263e-13
1.03581e-13
1.05027e-13
1.06444e-13
1.07585e-13
1.08826e-13
1.10268e-13
1.11576e-13
1.1276e-13
1.14005e-13
1.15219e-13
1.16482e-13
1.17724e-13
1.18935e-13
1.20205e-13
1.21594e-13
1.23058e-13
1.2453e-13
1.25915e-13
1.28068e-13
1.30175e-13
1.31093e-13
1.34033e-13
1.37393e-13
1.39212e-13
1.36045e-13
1.46224e-13
1.48073e-13
6.1786e-14
6.39585e-14
6.79543e-14
7.00322e-14
7.27702e-14
7.30555e-14
7.50501e-14
7.71866e-14
7.87894e-14
8.03464e-14
8.17495e-14
8.27591e-14
8.41817e-14
8.55652e-14
8.66877e-14
8.77852e-14
8.88576e-14
8.99844e-14
9.11041e-14
9.2124e-14
9.31879e-14
9.44378e-14
9.55288e-14
9.66069e-14
9.77182e-14
9.88243e-14
9.99302e-14
1.01068e-13
1.02195e-13
1.03269e-13
1.04459e-13
1.05639e-13
1.06787e-13
1.07894e-13
1.09008e-13
1.10059e-13
1.11093e-13
1.12161e-13
1.13268e-13
1.14355e-13
1.15438e-13
1.16592e-13
1.17772e-13
1.18905e-13
1.20159e-13
1.21554e-13
1.22952e-13
1.24526e-13
1.25688e-13
1.27588e-13
1.30848e-13
1.2912e-13
1.34021e-13
1.3782e-13
1.38461e-13
1.40933e-13
6.89263e-14
7.1436e-14
7.37886e-14
7.51821e-14
7.75413e-14
7.7782e-14
8.04468e-14
8.22799e-14
8.28528e-14
8.42137e-14
8.56201e-14
8.65999e-14
8.76436e-14
8.86712e-14
8.95395e-14
9.05472e-14
9.14659e-14
9.23349e-14
9.3196e-14
9.42209e-14
9.50461e-14
9.58307e-14
9.67176e-14
9.7645e-14
9.84876e-14
9.9371e-14
1.00321e-13
1.01269e-13
1.02145e-13
1.03055e-13
1.03853e-13
1.04667e-13
1.05531e-13
1.06434e-13
1.07274e-13
1.08088e-13
1.09011e-13
1.09948e-13
1.10838e-13
1.11716e-13
1.12642e-13
1.13625e-13
1.14558e-13
1.15557e-13
1.16684e-13
1.17776e-13
1.18724e-13
1.20261e-13
1.21667e-13
1.22357e-13
1.24775e-13
1.25845e-13
1.28905e-13
1.27169e-13
1.32607e-13
1.34078e-13
7.59839e-14
7.78635e-14
7.89143e-14
8.07266e-14
8.29865e-14
8.30622e-14
8.50224e-14
8.6277e-14
8.69347e-14
8.79785e-14
8.88547e-14
8.98823e-14
9.06875e-14
9.13805e-14
9.21459e-14
9.29347e-14
9.37082e-14
9.4408e-14
9.50933e-14
9.57493e-14
9.65024e-14
9.71212e-14
9.78183e-14
9.84281e-14
9.90985e-14
9.97869e-14
1.00599e-13
1.01341e-13
1.02084e-13
1.02792e-13
1.03403e-13
1.04069e-13
1.04762e-13
1.05428e-13
1.06111e-13
1.06797e-13
1.07483e-13
1.08157e-13
1.08839e-13
1.09541e-13
1.10262e-13
1.10975e-13
1.11695e-13
1.12472e-13
1.13342e-13
1.1412e-13
1.15e-13
1.16318e-13
1.16935e-13
1.17734e-13
1.20804e-13
1.19661e-13
1.21405e-13
1.23729e-13
1.25707e-13
1.26861e-13
8.32404e-14
8.4807e-14
8.53126e-14
8.66329e-14
8.85588e-14
8.82614e-14
8.96624e-14
9.0501e-14
9.0919e-14
9.18159e-14
9.25552e-14
9.30616e-14
9.35339e-14
9.42213e-14
9.49466e-14
9.53338e-14
9.57851e-14
9.63366e-14
9.69256e-14
9.73087e-14
9.7862e-14
9.84027e-14
9.89637e-14
9.95078e-14
1.00161e-13
1.00633e-13
1.00965e-13
1.01208e-13
1.01626e-13
1.02185e-13
1.02831e-13
1.03418e-13
1.03897e-13
1.04361e-13
1.0485e-13
1.05426e-13
1.05891e-13
1.06355e-13
1.06859e-13
1.07364e-13
1.07852e-13
1.08422e-13
1.08971e-13
1.09513e-13
1.10167e-13
1.1072e-13
1.11249e-13
1.12165e-13
1.12958e-13
1.13429e-13
1.1456e-13
1.1427e-13
1.17845e-13
1.16913e-13
1.18026e-13
1.19624e-13
9.05046e-14
9.16676e-14
9.19446e-14
9.27026e-14
9.39418e-14
9.33768e-14
9.44906e-14
9.50934e-14
9.5155e-14
9.56615e-14
9.65156e-14
9.67999e-14
9.68127e-14
9.7309e-14
9.76544e-14
9.79023e-14
9.82185e-14
9.85554e-14
9.88653e-14
9.91599e-14
9.93955e-14
9.97176e-14
9.99033e-14
1.00063e-13
1.00271e-13
1.00642e-13
1.01116e-13
1.01702e-13
1.02115e-13
1.02252e-13
1.02402e-13
1.02657e-13
1.02942e-13
1.03283e-13
1.03572e-13
1.0376e-13
1.04094e-13
1.04418e-13
1.04707e-13
1.04995e-13
1.05291e-13
1.05627e-13
1.0593e-13
1.06229e-13
1.06544e-13
1.06942e-13
1.07311e-13
1.08179e-13
1.08235e-13
1.07864e-13
1.10802e-13
1.0996e-13
1.09099e-13
1.09456e-13
1.12728e-13
1.12473e-13
9.78606e-14
9.85132e-14
9.81259e-14
9.86846e-14
9.94342e-14
9.85755e-14
9.93233e-14
9.96566e-14
9.95401e-14
9.97199e-14
9.99942e-14
1.00023e-13
1.00095e-13
1.00341e-13
1.00283e-13
1.00413e-13
1.006e-13
1.0065e-13
1.00679e-13
1.00836e-13
1.00948e-13
1.01056e-13
1.01197e-13
1.0146e-13
1.0155e-13
1.01607e-13
1.01493e-13
1.014e-13
1.01452e-13
1.01657e-13
1.01809e-13
1.01952e-13
1.02002e-13
1.02076e-13
1.02244e-13
1.02272e-13
1.02417e-13
1.02493e-13
1.02554e-13
1.02688e-13
1.02791e-13
1.02856e-13
1.0293e-13
1.03061e-13
1.03185e-13
1.0335e-13
1.03323e-13
1.03536e-13
1.03821e-13
1.04238e-13
1.04228e-13
1.01815e-13
1.06919e-13
1.05753e-13
1.03927e-13
1.04981e-13
1.05169e-13
1.05374e-13
1.04501e-13
1.0459e-13
1.0506e-13
1.03799e-13
1.04176e-13
1.04159e-13
1.03672e-13
1.03691e-13
1.03482e-13
1.03324e-13
1.03329e-13
1.03106e-13
1.03048e-13
1.02972e-13
1.0284e-13
1.02687e-13
1.02625e-13
1.02561e-13
1.02441e-13
1.02286e-13
1.0227e-13
1.02281e-13
1.02195e-13
1.02e-13
1.0183e-13
1.01529e-13
1.01357e-13
1.01374e-13
1.01351e-13
1.01232e-13
1.01139e-13
1.00971e-13
1.00882e-13
1.0085e-13
1.00709e-13
1.00563e-13
1.00496e-13
1.00367e-13
1.00265e-13
1.00172e-13
1.0015e-13
9.99306e-14
9.98674e-14
9.97091e-14
9.94999e-14
9.97681e-14
9.92198e-14
9.8079e-14
1.00143e-13
9.95582e-14
9.74932e-14
9.44772e-14
9.94247e-14
9.78758e-14
1.12597e-13
1.12929e-13
1.10818e-13
1.10425e-13
1.10722e-13
1.08986e-13
1.09047e-13
1.08683e-13
1.07885e-13
1.07697e-13
1.07103e-13
1.06642e-13
1.06546e-13
1.06131e-13
1.05843e-13
1.05514e-13
1.05169e-13
1.04914e-13
1.04613e-13
1.04236e-13
1.03916e-13
1.03699e-13
1.0325e-13
1.02741e-13
1.02332e-13
1.0207e-13
1.02045e-13
1.02049e-13
1.01822e-13
1.01384e-13
1.00856e-13
1.00504e-13
1.00262e-13
1.00003e-13
9.95999e-14
9.9324e-14
9.89558e-14
9.87117e-14
9.84219e-14
9.80708e-14
9.77509e-14
9.74742e-14
9.7069e-14
9.66716e-14
9.65384e-14
9.62029e-14
9.55052e-14
9.50685e-14
9.48744e-14
9.49812e-14
9.35801e-14
9.01346e-14
9.59827e-14
9.36607e-14
9.01893e-14
9.02962e-14
1.1982e-13
1.19169e-13
1.17018e-13
1.16481e-13
1.16287e-13
1.14027e-13
1.13851e-13
1.13193e-13
1.12089e-13
1.11566e-13
1.10918e-13
1.10228e-13
1.0968e-13
1.09089e-13
1.08505e-13
1.0794e-13
1.07444e-13
1.0693e-13
1.06409e-13
1.05898e-13
1.0541e-13
1.04926e-13
1.04472e-13
1.04119e-13
1.03702e-13
1.03142e-13
1.02422e-13
1.01684e-13
1.01108e-13
1.00679e-13
1.00264e-13
9.98525e-14
9.93052e-14
9.88055e-14
9.8301e-14
9.78377e-14
9.73167e-14
9.68246e-14
9.62777e-14
9.57932e-14
9.52666e-14
9.47803e-14
9.41713e-14
9.35702e-14
9.30323e-14
9.23961e-14
9.15708e-14
9.14764e-14
9.0227e-14
8.81581e-14
9.00332e-14
8.92408e-14
8.46458e-14
8.11712e-14
8.61448e-14
8.33291e-14
1.27189e-13
1.26796e-13
1.23496e-13
1.22264e-13
1.21878e-13
1.19194e-13
1.18666e-13
1.17708e-13
1.16278e-13
1.15448e-13
1.14617e-13
1.13683e-13
1.12861e-13
1.12061e-13
1.11303e-13
1.10574e-13
1.09859e-13
1.09089e-13
1.08402e-13
1.07695e-13
1.07033e-13
1.06221e-13
1.05533e-13
1.0473e-13
1.04052e-13
1.033e-13
1.0275e-13
1.01992e-13
1.01382e-13
1.00563e-13
9.99157e-14
9.90679e-14
9.84243e-14
9.76077e-14
9.70353e-14
9.62124e-14
9.56085e-14
9.48008e-14
9.41957e-14
9.33711e-14
9.2713e-14
9.18739e-14
9.12174e-14
9.03004e-14
8.95857e-14
8.8766e-14
8.78153e-14
8.66019e-14
8.59973e-14
8.56241e-14
8.31383e-14
7.87078e-14
8.49373e-14
8.21052e-14
7.57431e-14
7.57616e-14
1.34315e-13
1.3283e-13
1.29727e-13
1.27846e-13
1.27276e-13
1.24228e-13
1.23323e-13
1.2209e-13
1.20342e-13
1.19309e-13
1.18181e-13
1.17043e-13
1.15908e-13
1.1502e-13
1.13969e-13
1.13139e-13
1.12061e-13
1.11306e-13
1.10235e-13
1.09499e-13
1.08387e-13
1.07697e-13
1.06597e-13
1.05865e-13
1.04716e-13
1.04032e-13
1.02895e-13
1.02247e-13
1.01087e-13
1.00395e-13
9.91702e-14
9.84845e-14
9.73622e-14
9.66989e-14
9.55374e-14
9.48765e-14
9.37605e-14
9.30893e-14
9.19695e-14
9.126e-14
9.01293e-14
8.94137e-14
8.8254e-14
8.73319e-14
8.62275e-14
8.51711e-14
8.37411e-14
8.33623e-14
8.1377e-14
7.81959e-14
8.03882e-14
7.90372e-14
7.22699e-14
6.77127e-14
7.27121e-14
6.90446e-14
1.41462e-13
1.39953e-13
1.36029e-13
1.33109e-13
1.32364e-13
1.28793e-13
1.27607e-13
1.26105e-13
1.24136e-13
1.22675e-13
1.21407e-13
1.19967e-13
1.18773e-13
1.17524e-13
1.16381e-13
1.15107e-13
1.1408e-13
1.12916e-13
1.11907e-13
1.10724e-13
1.09715e-13
1.08612e-13
1.07529e-13
1.0644e-13
1.05372e-13
1.04292e-13
1.03176e-13
1.02116e-13
1.00952e-13
9.9908e-14
9.87845e-14
9.78266e-14
9.66792e-14
9.5688e-14
9.44984e-14
9.353e-14
9.23065e-14
9.1369e-14
9.01821e-14
8.92106e-14
8.79618e-14
8.69975e-14
8.56875e-14
8.46225e-14
8.33051e-14
8.22363e-14
8.06377e-14
7.88888e-14
7.73223e-14
7.77934e-14
7.33313e-14
6.63803e-14
7.49992e-14
7.2303e-14
6.2043e-14
6.15376e-14
1.48425e-13
1.46098e-13
1.42046e-13
1.38704e-13
1.38183e-13
1.33927e-13
1.32244e-13
1.3047e-13
1.28319e-13
1.26549e-13
1.25189e-13
1.23326e-13
1.22099e-13
1.20352e-13
1.1951e-13
1.17727e-13
1.16984e-13
1.14974e-13
1.14444e-13
1.12383e-13
1.11978e-13
1.09705e-13
1.09426e-13
1.07092e-13
1.06896e-13
1.04381e-13
1.04287e-13
1.01592e-13
1.01583e-13
9.89121e-14
9.9008e-14
9.62733e-14
9.64119e-14
9.37311e-14
9.39532e-14
9.11418e-14
9.12712e-14
8.85714e-14
8.86526e-14
8.59474e-14
8.59187e-14
8.32665e-14
8.30322e-14
8.06024e-14
8.0342e-14
7.77745e-14
7.66592e-14
7.49533e-14
7.39957e-14
6.82081e-14
6.96081e-14
7.13707e-14
6.16421e-14
5.23583e-14
6.06365e-14
5.52291e-14
1.55173e-13
1.51781e-13
1.4849e-13
1.42664e-13
1.4234e-13
1.38668e-13
1.36222e-13
1.34455e-13
1.31955e-13
1.30371e-13
1.28215e-13
1.26857e-13
1.24917e-13
1.23797e-13
1.2158e-13
1.20565e-13
1.18486e-13
1.17795e-13
1.15454e-13
1.14853e-13
1.1241e-13
1.11971e-13
1.09496e-13
1.08995e-13
1.06453e-13
1.05995e-13
1.03411e-13
1.02989e-13
1.00335e-13
9.99027e-14
9.71231e-14
9.65998e-14
9.38563e-14
9.33021e-14
9.07269e-14
9.0489e-14
8.81568e-14
8.7593e-14
8.52901e-14
8.48202e-14
8.26896e-14
8.21455e-14
7.99224e-14
7.88395e-14
7.64592e-14
7.52173e-14
7.33568e-14
7.17065e-14
6.85088e-14
6.8561e-14
6.62707e-14
5.47745e-14
6.35376e-14
6.2053e-14
5.02905e-14
4.79802e-14
1.61694e-13
1.57852e-13
1.53227e-13
1.48131e-13
1.46323e-13
1.42081e-13
1.39655e-13
1.37507e-13
1.34544e-13
1.32781e-13
1.30537e-13
1.28977e-13
1.2642e-13
1.25368e-13
1.22841e-13
1.22204e-13
1.19297e-13
1.19011e-13
1.15934e-13
1.15967e-13
1.12532e-13
1.12926e-13
1.09058e-13
1.09832e-13
1.05714e-13
1.06787e-13
1.02418e-13
1.03743e-13
9.90597e-14
1.00568e-13
9.56685e-14
9.73724e-14
9.24784e-14
9.43492e-14
8.9286e-14
9.11835e-14
8.59494e-14
8.79815e-14
8.32233e-14
8.49426e-14
7.99933e-14
8.16487e-14
7.69987e-14
7.80846e-14
7.39387e-14
7.47057e-14
6.9802e-14
6.98062e-14
6.63247e-14
6.39886e-14
5.91377e-14
6.21273e-14
5.5905e-14
4.34069e-14
4.74355e-14
4.20187e-14
1.68221e-13
1.65566e-13
1.58065e-13
1.55603e-13
1.52265e-13
1.47184e-13
1.45524e-13
1.42378e-13
1.39818e-13
1.37184e-13
1.35871e-13
1.3284e-13
1.31972e-13
1.28973e-13
1.28618e-13
1.2519e-13
1.25286e-13
1.21242e-13
1.21897e-13
1.17267e-13
1.18456e-13
1.13278e-13
1.14846e-13
1.09241e-13
1.11086e-13
1.05103e-13
1.07067e-13
1.00604e-13
1.02952e-13
9.6253e-14
9.89546e-14
9.24064e-14
9.52759e-14
8.8703e-14
9.15246e-14
8.46547e-14
8.74569e-14
8.1149e-14
8.3091e-14
7.70449e-14
7.91434e-14
7.32315e-14
7.47826e-14
6.95757e-14
7.08046e-14
6.58531e-14
6.59481e-14
6.21095e-14
6.14795e-14
5.68752e-14
5.68596e-14
4.89564e-14
4.57559e-14
5.08653e-14
3.69042e-14
3.51094e-14
1.74228e-13
1.69638e-13
1.58766e-13
1.57559e-13
1.5462e-13
1.49904e-13
1.47708e-13
1.45034e-13
1.4226e-13
1.39904e-13
1.37718e-13
1.35377e-13
1.33553e-13
1.31119e-13
1.2922e-13
1.26743e-13
1.25306e-13
1.22605e-13
1.21355e-13
1.18535e-13
1.17479e-13
1.14544e-13
1.13684e-13
1.10326e-13
1.09773e-13
1.06365e-13
1.05964e-13
1.02055e-13
1.01489e-13
9.71493e-14
9.62413e-14
9.12254e-14
9.03728e-14
8.61708e-14
8.66554e-14
8.31582e-14
8.37642e-14
7.929e-14
8.05161e-14
7.73129e-14
7.82421e-14
7.42975e-14
7.451e-14
7.03089e-14
7.02091e-14
6.62104e-14
6.6087e-14
6.21202e-14
6.07272e-14
5.58479e-14
5.59907e-14
5.10372e-14
4.80078e-14
4.21363e-14
3.48523e-14
2.95526e-14
1.80197e-13
1.77179e-13
1.69326e-13
1.6305e-13
1.5946e-13
1.53679e-13
1.4974e-13
1.47506e-13
1.43846e-13
1.41881e-13
1.38616e-13
1.37382e-13
1.33902e-13
1.33503e-13
1.29639e-13
1.29862e-13
1.25355e-13
1.26256e-13
1.20886e-13
1.22514e-13
1.16162e-13
1.18325e-13
1.11227e-13
1.14453e-13
1.06881e-13
1.10537e-13
1.01895e-13
1.05541e-13
9.63269e-14
1.00914e-13
9.24105e-14
9.92689e-14
9.12897e-14
9.67121e-14
8.64648e-14
9.10757e-14
8.11097e-14
8.59843e-14
7.69981e-14
7.95887e-14
7.00454e-14
7.42993e-14
6.65076e-14
6.97441e-14
6.2795e-14
6.50403e-14
5.79688e-14
5.9145e-14
5.37348e-14
5.30206e-14
4.63922e-14
4.21127e-14
4.05532e-14
3.3661e-14
2.67675e-14
2.35308e-14
1.85741e-13
1.78684e-13
1.71693e-13
1.64353e-13
1.61248e-13
1.57864e-13
1.54737e-13
1.51504e-13
1.48791e-13
1.46258e-13
1.44116e-13
1.41573e-13
1.39483e-13
1.36999e-13
1.35131e-13
1.32492e-13
1.30531e-13
1.27843e-13
1.25911e-13
1.23019e-13
1.21166e-13
1.18237e-13
1.16158e-13
1.12671e-13
1.10398e-13
1.07108e-13
1.05272e-13
1.02408e-13
1.01376e-13
9.82884e-14
9.62303e-14
9.20377e-14
8.93351e-14
8.56854e-14
8.40636e-14
8.10576e-14
7.96291e-14
7.66376e-14
7.47288e-14
7.25326e-14
7.13863e-14
6.86969e-14
6.66698e-14
6.41731e-14
6.22771e-14
5.97221e-14
5.74907e-14
5.51561e-14
5.24822e-14
4.91529e-14
4.62846e-14
4.28795e-14
3.90576e-14
3.14919e-14
2.58829e-14
1.81475e-14
1.90182e-13
1.80692e-13
1.72659e-13
1.67346e-13
1.63067e-13
1.59208e-13
1.55887e-13
1.52916e-13
1.50245e-13
1.47699e-13
1.45325e-13
1.42955e-13
1.40724e-13
1.38391e-13
1.36179e-13
1.33796e-13
1.31555e-13
1.29079e-13
1.26771e-13
1.24165e-13
1.21779e-13
1.19045e-13
1.16721e-13
1.14728e-13
1.13479e-13
1.11364e-13
1.08412e-13
1.03718e-13
9.89885e-14
9.4428e-14
9.16909e-14
8.96838e-14
8.85358e-14
8.64178e-14
8.41833e-14
8.13776e-14
7.91193e-14
7.64431e-14
7.42337e-14
7.16971e-14
6.95796e-14
6.70978e-14
6.50267e-14
6.26408e-14
6.05334e-14
5.81015e-14
5.58394e-14
5.32491e-14
5.06446e-14
4.76088e-14
4.43868e-14
4.05697e-14
3.62883e-14
3.09372e-14
2.29919e-14
1.35133e-14
)
;

boundaryField
{
    top
    {
        type            zeroGradient;
    }
    bottom
    {
        type            zeroGradient;
    }
    rotatingWall
    {
        type            zeroGradient;
    }
    wall
    {
        type            zeroGradient;
    }
    frontAndBack
    {
        type            empty;
    }
}


// ************************************************************************* //
