/*--------------------------------*- C++ -*----------------------------------*\
| =========                 |                                                 |
| \\      /  F ield         | OpenFOAM: The Open Source CFD Toolbox           |
|  \\    /   O peration     | Version:  5.0                                   |
|   \\  /    A nd           | Web:      www.OpenFOAM.org                      |
|    \\/     M anipulation  |                                                 |
\*---------------------------------------------------------------------------*/
FoamFile
{
    version     2.0;
    format      ascii;
    class       volVectorField;
    location    "3.9";
    object      U;
}
// * * * * * * * * * * * * * * * * * * * * * * * * * * * * * * * * * * * * * //

dimensions      [0 1 -1 0 0 0 0];

internalField   nonuniform List<vector> 
25
(
(1 -7.58709e-10 1.28279e-29)
(1 8.21376e-10 -3.23241e-23)
(1 -1.68449e-09 -3.23241e-23)
(1 1.21927e-09 -3.2324e-23)
(1 -4.25719e-10 -1.53076e-29)
(0.92 -5.73428e-10 -7.11297e-37)
(0.92 1.32636e-09 2.79793e-23)
(0.92 -3.06341e-09 -1.40428e-28)
(0.92 -6.0204e-10 -2.79795e-23)
(0.92 -3.43333e-09 -2.79793e-23)
(0.76 1.52218e-09 -2.73702e-23)
(0.76 3.174e-10 7.28887e-29)
(0.76 -6.94436e-10 2.79794e-23)
(0.76 -6.65143e-09 -5.59587e-23)
(0.76 -5.62588e-09 -5.59585e-23)
(0.52 3.00657e-09 5.48441e-23)
(0.52 1.29848e-10 2.79794e-23)
(0.52 -2.02678e-11 -5.59588e-23)
(0.52 -1.2254e-08 -2.79783e-23)
(0.52 -5.06307e-09 5.59583e-23)
(0.2 2.41347e-11 3.93807e-23)
(0.2 -5.53988e-11 1.99393e-23)
(0.2 1.13037e-09 -5.9818e-23)
(0.2 1.0376e-09 -1.99392e-23)
(0.2 4.25993e-10 3.98785e-23)
)
;

boundaryField
{
    top
    {
        type            fixedValue;
        value           uniform (0 0 0);
    }
    bottom
    {
        type            symmetryPlane;
    }
    inlet
    {
        type            pressureInletVelocity;
        value           nonuniform List<vector> 5((1 -0 -0) (0.92 -0 -0) (0.76 -0 -0) (0.52 -0 -0) (0.2 -0 -0));
    }
    outlet
    {
        type            inletOutlet;
        inletValue      nonuniform 0();
        value           nonuniform 0();
    }
    frontAndBack
    {
        type            empty;
    }
    procBoundary0to1
    {
        type            processor;
        value           nonuniform List<vector> 5((1 -5.16556e-09 6.46478e-23) (0.92 -6.28847e-09 -2.79792e-23) (0.76 4.87869e-09 2.79796e-23) (0.52 1.32055e-08 5.59591e-23) (0.2 8.19497e-10 3.98784e-23));
    }
}


// ************************************************************************* //
