/*--------------------------------*- C++ -*----------------------------------*\
| =========                 |                                                 |
| \\      /  F ield         | OpenFOAM: The Open Source CFD Toolbox           |
|  \\    /   O peration     | Version:  5.0                                   |
|   \\  /    A nd           | Web:      www.OpenFOAM.org                      |
|    \\/     M anipulation  |                                                 |
\*---------------------------------------------------------------------------*/
FoamFile
{
    version     2.0;
    format      ascii;
    class       volVectorField;
    location    "516";
    object      U;
}
// * * * * * * * * * * * * * * * * * * * * * * * * * * * * * * * * * * * * * //

dimensions      [0 1 -1 0 0 0 0];

internalField   nonuniform List<vector> 
1568
(
(2.56983e-18 -6.05346e-18 0)
(2.15044e-17 -1.42658e-17 0)
(5.53454e-17 -2.11593e-17 0)
(1.01979e-16 -2.64374e-17 0)
(1.57576e-16 -3.07629e-17 0)
(2.20934e-16 -3.44143e-17 0)
(2.90642e-16 -3.72857e-17 0)
(3.6525e-16 -3.95032e-17 0)
(4.43578e-16 -4.11332e-17 0)
(5.24509e-16 -4.21983e-17 0)
(6.06981e-16 -4.27432e-17 0)
(6.90021e-16 -4.28042e-17 0)
(7.72732e-16 -4.24159e-17 0)
(8.5427e-16 -4.16084e-17 0)
(9.33852e-16 -4.04123e-17 0)
(1.01075e-15 -3.88556e-17 0)
(1.0843e-15 -3.69679e-17 0)
(1.15389e-15 -3.47765e-17 0)
(1.21895e-15 -3.23096e-17 0)
(1.27898e-15 -2.95944e-17 0)
(1.33352e-15 -2.66584e-17 0)
(1.38219e-15 -2.35177e-17 0)
(1.42467e-15 -2.01368e-17 0)
(1.46033e-15 -1.59859e-17 0)
(1.48922e-15 -1.1565e-17 0)
(1.51143e-15 -7.5972e-18 0)
(1.52672e-15 -3.83477e-18 0)
(1.53431e-15 -1.0231e-18 0)
(1.53435e-15 9.93253e-19 0)
(1.52685e-15 3.79503e-18 0)
(1.51164e-15 7.55404e-18 0)
(1.48952e-15 1.15134e-17 0)
(1.4607e-15 1.59339e-17 0)
(1.42512e-15 2.00981e-17 0)
(1.38271e-15 2.34824e-17 0)
(1.33411e-15 2.66253e-17 0)
(1.27963e-15 2.95655e-17 0)
(1.21965e-15 3.22834e-17 0)
(1.15464e-15 3.47549e-17 0)
(1.08509e-15 3.69505e-17 0)
(1.01156e-15 3.88427e-17 0)
(9.34685e-16 4.04031e-17 0)
(8.55116e-16 4.16046e-17 0)
(7.7358e-16 4.24176e-17 0)
(6.9086e-16 4.28116e-17 0)
(6.07798e-16 4.27544e-17 0)
(5.25299e-16 4.22132e-17 0)
(4.44338e-16 4.11527e-17 0)
(3.65957e-16 3.95338e-17 0)
(2.91284e-16 3.7308e-17 0)
(2.21547e-16 3.44264e-17 0)
(1.58117e-16 3.08215e-17 0)
(1.02412e-16 2.64387e-17 0)
(5.5794e-17 2.11274e-17 0)
(2.20655e-17 1.4216e-17 0)
(2.88804e-18 5.89984e-18 0)
(6.96515e-19 -1.69918e-17 0)
(1.9653e-17 -4.01557e-17 0)
(4.95616e-17 -5.96194e-17 0)
(9.20271e-17 -7.52183e-17 0)
(1.43608e-16 -8.80387e-17 0)
(2.02404e-16 -9.84575e-17 0)
(2.6715e-16 -1.06769e-16 0)
(3.36612e-16 -1.13184e-16 0)
(4.09558e-16 -1.17857e-16 0)
(4.8491e-16 -1.20919e-16 0)
(5.61709e-16 -1.22481e-16 0)
(6.39049e-16 -1.22658e-16 0)
(7.16065e-16 -1.21543e-16 0)
(7.91974e-16 -1.19224e-16 0)
(8.6606e-16 -1.15789e-16 0)
(9.37639e-16 -1.11325e-16 0)
(1.00609e-15 -1.05911e-16 0)
(1.07084e-15 -9.9626e-17 0)
(1.13138e-15 -9.25487e-17 0)
(1.18722e-15 -8.47587e-17 0)
(1.23793e-15 -7.63306e-17 0)
(1.28313e-15 -6.73492e-17 0)
(1.3225e-15 -5.79116e-17 0)
(1.35578e-15 -4.81268e-17 0)
(1.38288e-15 -3.84754e-17 0)
(1.40357e-15 -2.85114e-17 0)
(1.41764e-15 -1.76588e-17 0)
(1.4247e-15 -5.98952e-18 0)
(1.42475e-15 5.86001e-18 0)
(1.41776e-15 1.75369e-17 0)
(1.40376e-15 2.84003e-17 0)
(1.38315e-15 3.83715e-17 0)
(1.35611e-15 4.80207e-17 0)
(1.3229e-15 5.781e-17 0)
(1.2836e-15 6.72536e-17 0)
(1.23845e-15 7.62427e-17 0)
(1.1878e-15 8.46808e-17 0)
(1.13201e-15 9.24801e-17 0)
(1.07151e-15 9.95687e-17 0)
(1.00679e-15 1.05865e-16 0)
(9.38371e-16 1.11293e-16 0)
(8.66809e-16 1.1577e-16 0)
(7.92735e-16 1.19219e-16 0)
(7.16824e-16 1.2155e-16 0)
(6.398e-16 1.22681e-16 0)
(5.62451e-16 1.22519e-16 0)
(4.85623e-16 1.20967e-16 0)
(4.10224e-16 1.17916e-16 0)
(3.37245e-16 1.13254e-16 0)
(2.67752e-16 1.0685e-16 0)
(2.0291e-16 9.85311e-17 0)
(1.44035e-16 8.80887e-17 0)
(9.24536e-17 7.53106e-17 0)
(4.98457e-17 5.96276e-17 0)
(1.98645e-17 4.01658e-17 0)
(8.10827e-19 1.67854e-17 0)
(2.52826e-19 -2.583e-17 0)
(1.63473e-17 -6.34461e-17 0)
(4.29956e-17 -9.49481e-17 0)
(8.17875e-17 -1.20468e-16 0)
(1.28887e-16 -1.4133e-16 0)
(1.83055e-16 -1.58299e-16 0)
(2.42926e-16 -1.71771e-16 0)
(3.07171e-16 -1.82144e-16 0)
(3.74708e-16 -1.89686e-16 0)
(4.44538e-16 -1.94615e-16 0)
(5.15708e-16 -1.97125e-16 0)
(5.87361e-16 -1.97394e-16 0)
(6.58723e-16 -1.95581e-16 0)
(7.29059e-16 -1.91832e-16 0)
(7.97682e-16 -1.86292e-16 0)
(8.63976e-16 -1.79094e-16 0)
(9.27366e-16 -1.70369e-16 0)
(9.87321e-16 -1.60246e-16 0)
(1.04336e-15 -1.4885e-16 0)
(1.09505e-15 -1.36304e-16 0)
(1.14199e-15 -1.22731e-16 0)
(1.18384e-15 -1.08251e-16 0)
(1.22031e-15 -9.29924e-17 0)
(1.25118e-15 -7.71275e-17 0)
(1.27619e-15 -6.08752e-17 0)
(1.29504e-15 -4.4153e-17 0)
(1.30764e-15 -2.68185e-17 0)
(1.314e-15 -9.03851e-18 0)
(1.31403e-15 8.85399e-18 0)
(1.30774e-15 2.66379e-17 0)
(1.2952e-15 4.39809e-17 0)
(1.27642e-15 6.07094e-17 0)
(1.25147e-15 7.69686e-17 0)
(1.22065e-15 9.28405e-17 0)
(1.18424e-15 1.0811e-16 0)
(1.14244e-15 1.22601e-16 0)
(1.09554e-15 1.3619e-16 0)
(1.04389e-15 1.4875e-16 0)
(9.87887e-16 1.60163e-16 0)
(9.2796e-16 1.70304e-16 0)
(8.64592e-16 1.79047e-16 0)
(7.98315e-16 1.86265e-16 0)
(7.29699e-16 1.91827e-16 0)
(6.59367e-16 1.95596e-16 0)
(5.87999e-16 1.97432e-16 0)
(5.16325e-16 1.97184e-16 0)
(4.45132e-16 1.9469e-16 0)
(3.75282e-16 1.89781e-16 0)
(3.07704e-16 1.82258e-16 0)
(2.43395e-16 1.71885e-16 0)
(1.83473e-16 1.58406e-16 0)
(1.29278e-16 1.41465e-16 0)
(8.20225e-17 1.2056e-16 0)
(4.31843e-17 9.50119e-17 0)
(1.6489e-17 6.3515e-17 0)
(2.94004e-19 2.5799e-17 0)
(1.61244e-19 -3.29631e-17 0)
(1.41312e-17 -8.3669e-17 0)
(3.76983e-17 -1.26209e-16 0)
(7.24353e-17 -1.61183e-16 0)
(1.15212e-16 -1.89727e-16 0)
(1.64544e-16 -2.12848e-16 0)
(2.1928e-16 -2.3123e-16 0)
(2.78199e-16 -2.45345e-16 0)
(3.40233e-16 -2.55576e-16 0)
(4.04405e-16 -2.62253e-16 0)
(4.69851e-16 -2.65658e-16 0)
(5.35778e-16 -2.66019e-16 0)
(6.01434e-16 -2.63562e-16 0)
(6.66138e-16 -2.58498e-16 0)
(7.29274e-16 -2.51015e-16 0)
(7.90261e-16 -2.41297e-16 0)
(8.48564e-16 -2.29526e-16 0)
(9.03702e-16 -2.15873e-16 0)
(9.55235e-16 -2.00508e-16 0)
(1.00276e-15 -1.83599e-16 0)
(1.04592e-15 -1.65313e-16 0)
(1.0844e-15 -1.45818e-16 0)
(1.11793e-15 -1.25287e-16 0)
(1.14628e-15 -1.03901e-16 0)
(1.16917e-15 -8.18566e-17 0)
(1.18637e-15 -5.91764e-17 0)
(1.1978e-15 -3.58471e-17 0)
(1.20353e-15 -1.20689e-17 0)
(1.20356e-15 1.18373e-17 0)
(1.19788e-15 3.56204e-17 0)
(1.18649e-15 5.89571e-17 0)
(1.16935e-15 8.16458e-17 0)
(1.1465e-15 1.03699e-16 0)
(1.1182e-15 1.25095e-16 0)
(1.08471e-15 1.4564e-16 0)
(1.04627e-15 1.65151e-16 0)
(1.00314e-15 1.83453e-16 0)
(9.55646e-16 2.00384e-16 0)
(9.0414e-16 2.15769e-16 0)
(8.49025e-16 2.29445e-16 0)
(7.9074e-16 2.41241e-16 0)
(7.29765e-16 2.50985e-16 0)
(6.66636e-16 2.58493e-16 0)
(6.0193e-16 2.63588e-16 0)
(5.36269e-16 2.66069e-16 0)
(4.70334e-16 2.65734e-16 0)
(4.04866e-16 2.62361e-16 0)
(3.40666e-16 2.55703e-16 0)
(2.78599e-16 2.45483e-16 0)
(2.19644e-16 2.31391e-16 0)
(1.64865e-16 2.13024e-16 0)
(1.15443e-16 1.89882e-16 0)
(7.26311e-17 1.61306e-16 0)
(3.7825e-17 1.26401e-16 0)
(1.41618e-17 8.37187e-17 0)
(1.94509e-19 3.30323e-17 0)
(1.53448e-19 -3.92449e-17 0)
(1.22402e-17 -1.01282e-16 0)
(3.30754e-17 -1.54171e-16 0)
(6.4018e-17 -1.977e-16 0)
(1.02317e-16 -2.33475e-16 0)
(1.46775e-16 -2.62458e-16 0)
(1.96313e-16 -2.85454e-16 0)
(2.49771e-16 -3.03094e-16 0)
(3.06153e-16 -3.15884e-16 0)
(3.64561e-16 -3.24229e-16 0)
(4.24179e-16 -3.28474e-16 0)
(4.84258e-16 -3.2894e-16 0)
(5.44107e-16 -3.2591e-16 0)
(6.03105e-16 -3.19639e-16 0)
(6.60673e-16 -3.10369e-16 0)
(7.16275e-16 -2.98341e-16 0)
(7.69431e-16 -2.83769e-16 0)
(8.19697e-16 -2.66873e-16 0)
(8.66667e-16 -2.47863e-16 0)
(9.09979e-16 -2.2695e-16 0)
(9.49307e-16 -2.04336e-16 0)
(9.84362e-16 -1.80232e-16 0)
(1.01489e-15 -1.54844e-16 0)
(1.04066e-15 -1.28381e-16 0)
(1.06145e-15 -1.01035e-16 0)
(1.0771e-15 -7.29156e-17 0)
(1.08752e-15 -4.41115e-17 0)
(1.09274e-15 -1.48436e-17 0)
(1.09276e-15 1.45799e-17 0)
(1.08757e-15 4.38516e-17 0)
(1.07718e-15 7.26626e-17 0)
(1.06158e-15 1.00793e-16 0)
(1.04081e-15 1.28149e-16 0)
(1.01507e-15 1.54625e-16 0)
(9.84575e-16 1.80027e-16 0)
(9.49548e-16 2.0415e-16 0)
(9.10244e-16 2.26784e-16 0)
(8.66954e-16 2.4772e-16 0)
(8.20002e-16 2.66755e-16 0)
(7.69752e-16 2.83679e-16 0)
(7.16608e-16 2.98278e-16 0)
(6.61013e-16 3.10338e-16 0)
(6.03453e-16 3.19638e-16 0)
(5.44455e-16 3.2594e-16 0)
(4.84598e-16 3.29005e-16 0)
(4.24514e-16 3.28569e-16 0)
(3.6488e-16 3.2435e-16 0)
(3.06447e-16 3.16035e-16 0)
(2.50053e-16 3.03272e-16 0)
(1.96566e-16 2.85644e-16 0)
(1.46966e-16 2.62652e-16 0)
(1.02473e-16 2.33687e-16 0)
(6.41554e-17 1.97926e-16 0)
(3.312e-17 1.54312e-16 0)
(1.22768e-17 1.01455e-16 0)
(1.39001e-19 3.93089e-17 0)
(9.48266e-20 -4.47205e-17 0)
(1.06478e-17 -1.16837e-16 0)
(2.8886e-17 -1.78784e-16 0)
(5.61694e-17 -2.30236e-16 0)
(9.00969e-17 -2.72615e-16 0)
(1.29705e-16 -3.06999e-16 0)
(1.73981e-16 -3.34312e-16 0)
(2.21882e-16 -3.55266e-16 0)
(2.72508e-16 -3.7045e-16 0)
(3.25033e-16 -3.8036e-16 0)
(3.78697e-16 -3.85421e-16 0)
(4.3281e-16 -3.86012e-16 0)
(4.86742e-16 -3.82472e-16 0)
(5.3992e-16 -3.75113e-16 0)
(5.91811e-16 -3.64232e-16 0)
(6.41936e-16 -3.50102e-16 0)
(6.89855e-16 -3.32986e-16 0)
(7.35164e-16 -3.13144e-16 0)
(7.77499e-16 -2.90823e-16 0)
(8.16531e-16 -2.66266e-16 0)
(8.51966e-16 -2.39718e-16 0)
(8.83539e-16 -2.11418e-16 0)
(9.1102e-16 -1.81601e-16 0)
(9.34204e-16 -1.50499e-16 0)
(9.52908e-16 -1.18331e-16 0)
(9.6699e-16 -8.52777e-17 0)
(9.7639e-16 -5.1525e-17 0)
(9.81096e-16 -1.73205e-17 0)
(9.81106e-16 1.70382e-17 0)
(9.76419e-16 5.12473e-17 0)
(9.67039e-16 8.50079e-17 0)
(9.52976e-16 1.1807e-16 0)
(9.34293e-16 1.50251e-16 0)
(9.11127e-16 1.81367e-16 0)
(8.83663e-16 2.11201e-16 0)
(8.52106e-16 2.39521e-16 0)
(8.16685e-16 2.66092e-16 0)
(7.77665e-16 2.90672e-16 0)
(7.35342e-16 3.1302e-16 0)
(6.90042e-16 3.32891e-16 0)
(6.42131e-16 3.50037e-16 0)
(5.92011e-16 3.64201e-16 0)
(5.4012e-16 3.75117e-16 0)
(4.86944e-16 3.82508e-16 0)
(4.3301e-16 3.86083e-16 0)
(3.7889e-16 3.85527e-16 0)
(3.25219e-16 3.80497e-16 0)
(2.72688e-16 3.70619e-16 0)
(2.22036e-16 3.5546e-16 0)
(1.74109e-16 3.34523e-16 0)
(1.29839e-16 3.07228e-16 0)
(9.01972e-17 2.72845e-16 0)
(5.61904e-17 2.30462e-16 0)
(2.89358e-17 1.78992e-16 0)
(1.06881e-17 1.17012e-16 0)
(1.04129e-19 4.47829e-17 0)
(7.72788e-20 -4.94439e-17 0)
(9.20284e-18 -1.30381e-16 0)
(2.50125e-17 -2.00324e-16 0)
(4.87616e-17 -2.58807e-16 0)
(7.8455e-17 -3.0713e-16 0)
(1.13221e-16 -3.46445e-16 0)
(1.5221e-16 -3.77714e-16 0)
(1.94511e-16 -4.01717e-16 0)
(2.39302e-16 -4.19119e-16 0)
(2.85835e-16 -4.3049e-16 0)
(3.33431e-16 -4.36323e-16 0)
(3.81461e-16 -4.37054e-16 0)
(4.29355e-16 -4.33079e-16 0)
(4.76591e-16 -4.24763e-16 0)
(5.22697e-16 -4.12441e-16 0)
(5.67239e-16 -3.96431e-16 0)
(6.09818e-16 -3.77039e-16 0)
(6.50077e-16 -3.54555e-16 0)
(6.87691e-16 -3.29265e-16 0)
(7.22366e-16 -3.01445e-16 0)
(7.53838e-16 -2.71369e-16 0)
(7.81874e-16 -2.39306e-16 0)
(8.06268e-16 -2.0552e-16 0)
(8.2684e-16 -1.70271e-16 0)
(8.43436e-16 -1.33809e-16 0)
(8.55943e-16 -9.63659e-17 0)
(8.64297e-16 -5.81856e-17 0)
(8.6848e-16 -1.9543e-17 0)
(8.68483e-16 1.9257e-17 0)
(8.64307e-16 5.7903e-17 0)
(8.55959e-16 9.60902e-17 0)
(8.43459e-16 1.33543e-16 0)
(8.2687e-16 1.70018e-16 0)
(8.06305e-16 2.05282e-16 0)
(7.81917e-16 2.39085e-16 0)
(7.53886e-16 2.71168e-16 0)
(7.22419e-16 3.01267e-16 0)
(6.87749e-16 3.29113e-16 0)
(6.50139e-16 3.54431e-16 0)
(6.09884e-16 3.76945e-16 0)
(5.67307e-16 3.96369e-16 0)
(5.22769e-16 4.12412e-16 0)
(4.76664e-16 4.24768e-16 0)
(4.29428e-16 4.33121e-16 0)
(3.81534e-16 4.37131e-16 0)
(3.33504e-16 4.36435e-16 0)
(2.85905e-16 4.30637e-16 0)
(2.39362e-16 4.19297e-16 0)
(1.94574e-16 4.01919e-16 0)
(1.5227e-16 3.77942e-16 0)
(1.13246e-16 3.4669e-16 0)
(7.84759e-17 3.07372e-16 0)
(4.88084e-17 2.59042e-16 0)
(2.50155e-17 2.00552e-16 0)
(9.18808e-18 1.3053e-16 0)
(8.86259e-20 4.95229e-17 0)
(7.06045e-20 -5.35116e-17 0)
(7.83655e-18 -1.42008e-16 0)
(2.13534e-17 -2.18931e-16 0)
(4.17096e-17 -2.83539e-16 0)
(6.72405e-17 -3.37137e-16 0)
(9.72284e-17 -3.8085e-16 0)
(1.30953e-16 -4.15659e-16 0)
(1.67618e-16 -4.42412e-16 0)
(2.06509e-16 -4.61831e-16 0)
(2.46973e-16 -4.74538e-16 0)
(2.88402e-16 -4.8109e-16 0)
(3.3024e-16 -4.81975e-16 0)
(3.71982e-16 -4.77638e-16 0)
(4.13167e-16 -4.68489e-16 0)
(4.53375e-16 -4.54906e-16 0)
(4.92223e-16 -4.37246e-16 0)
(5.29363e-16 -4.15848e-16 0)
(5.64479e-16 -3.91035e-16 0)
(5.97284e-16 -3.63125e-16 0)
(6.27522e-16 -3.32426e-16 0)
(6.54964e-16 -2.99237e-16 0)
(6.79405e-16 -2.63855e-16 0)
(7.00665e-16 -2.26571e-16 0)
(7.18591e-16 -1.87672e-16 0)
(7.33055e-16 -1.47436e-16 0)
(7.43961e-16 -1.06139e-16 0)
(7.51253e-16 -6.40607e-17 0)
(7.54903e-16 -2.15007e-17 0)
(7.549e-16 2.12225e-17 0)
(7.51245e-16 6.37854e-17 0)
(7.43949e-16 1.0587e-16 0)
(7.33038e-16 1.47177e-16 0)
(7.1857e-16 1.87425e-16 0)
(7.0064e-16 2.26339e-16 0)
(6.79377e-16 2.6364e-16 0)
(6.54933e-16 2.99042e-16 0)
(6.27489e-16 3.32254e-16 0)
(5.97248e-16 3.62979e-16 0)
(5.64441e-16 3.90916e-16 0)
(5.29324e-16 4.15758e-16 0)
(4.92184e-16 4.37188e-16 0)
(4.53336e-16 4.54882e-16 0)
(4.13129e-16 4.68499e-16 0)
(3.71946e-16 4.77682e-16 0)
(3.30206e-16 4.82055e-16 0)
(2.88369e-16 4.81205e-16 0)
(2.46944e-16 4.74686e-16 0)
(2.06487e-16 4.62009e-16 0)
(1.67593e-16 4.4262e-16 0)
(1.30928e-16 4.15885e-16 0)
(9.72226e-17 3.81088e-16 0)
(6.72315e-17 3.37391e-16 0)
(4.16786e-17 2.83778e-16 0)
(2.13533e-17 2.19136e-16 0)
(7.84996e-18 1.42171e-16 0)
(6.85667e-20 5.3583e-17 0)
(5.32281e-20 -5.6948e-17 0)
(6.54168e-18 -1.51852e-16 0)
(1.78515e-17 -2.34698e-16 0)
(3.49213e-17 -3.04569e-16 0)
(5.63813e-17 -3.62713e-16 0)
(8.16519e-17 -4.10238e-16 0)
(1.10131e-16 -4.48151e-16 0)
(1.4115e-16 -4.77325e-16 0)
(1.74106e-16 -4.98525e-16 0)
(2.08434e-16 -5.12425e-16 0)
(2.43614e-16 -5.19632e-16 0)
(2.79171e-16 -5.20673e-16 0)
(3.14663e-16 -5.1604e-16 0)
(3.49692e-16 -5.06186e-16 0)
(3.83901e-16 -4.91525e-16 0)
(4.16957e-16 -4.72444e-16 0)
(4.48562e-16 -4.49316e-16 0)
(4.78444e-16 -4.22495e-16 0)
(5.06358e-16 -3.92325e-16 0)
(5.32087e-16 -3.59138e-16 0)
(5.55433e-16 -3.23261e-16 0)
(5.76222e-16 -2.85015e-16 0)
(5.94303e-16 -2.44712e-16 0)
(6.09547e-16 -2.02666e-16 0)
(6.21849e-16 -1.59181e-16 0)
(6.31129e-16 -1.14565e-16 0)
(6.37336e-16 -6.91254e-17 0)
(6.40442e-16 -2.31854e-17 0)
(6.40434e-16 2.29236e-17 0)
(6.37313e-16 6.88673e-17 0)
(6.31092e-16 1.14313e-16 0)
(6.21798e-16 1.58938e-16 0)
(6.09483e-16 2.02434e-16 0)
(5.94226e-16 2.44495e-16 0)
(5.76133e-16 2.84814e-16 0)
(5.55334e-16 3.2308e-16 0)
(5.31979e-16 3.58979e-16 0)
(5.06242e-16 3.92189e-16 0)
(4.78321e-16 4.22386e-16 0)
(4.48434e-16 4.49234e-16 0)
(4.16826e-16 4.72392e-16 0)
(3.83768e-16 4.91504e-16 0)
(3.4956e-16 5.06199e-16 0)
(3.14533e-16 5.16085e-16 0)
(2.79047e-16 5.20751e-16 0)
(2.43498e-16 5.19743e-16 0)
(2.08323e-16 5.12569e-16 0)
(1.74004e-16 4.98696e-16 0)
(1.41064e-16 4.77521e-16 0)
(1.1006e-16 4.4837e-16 0)
(8.15832e-17 4.10471e-16 0)
(5.63291e-17 3.62943e-16 0)
(3.4904e-17 3.04795e-16 0)
(1.78334e-17 2.34901e-16 0)
(6.52932e-18 1.51995e-16 0)
(5.77213e-20 5.70102e-17 0)
(4.256e-20 -5.97736e-17 0)
(5.29809e-18 -1.59969e-16 0)
(1.44708e-17 -2.47718e-16 0)
(2.83399e-17 -3.21968e-16 0)
(4.58074e-17 -3.83919e-16 0)
(6.64124e-17 -4.34657e-16 0)
(8.96744e-17 -4.75196e-16 0)
(1.15051e-16 -5.06429e-16 0)
(1.42046e-16 -5.29152e-16 0)
(1.70192e-16 -5.44082e-16 0)
(1.99064e-16 -5.51861e-16 0)
(2.28262e-16 -5.5305e-16 0)
(2.57418e-16 -5.48183e-16 0)
(2.86205e-16 -5.37753e-16 0)
(3.14326e-16 -5.22194e-16 0)
(3.41503e-16 -5.01927e-16 0)
(3.67487e-16 -4.77351e-16 0)
(3.92056e-16 -4.48847e-16 0)
(4.15006e-16 -4.16782e-16 0)
(4.36157e-16 -3.8151e-16 0)
(4.55347e-16 -3.4338e-16 0)
(4.72435e-16 -3.02732e-16 0)
(4.87295e-16 -2.59901e-16 0)
(4.99822e-16 -2.1522e-16 0)
(5.09932e-16 -1.69017e-16 0)
(5.1756e-16 -1.21622e-16 0)
(5.22662e-16 -7.33678e-17 0)
(5.25213e-16 -2.45927e-17 0)
(5.25202e-16 2.43574e-17 0)
(5.22628e-16 7.3135e-17 0)
(5.17503e-16 1.21395e-16 0)
(5.09853e-16 1.68798e-16 0)
(4.99722e-16 2.15011e-16 0)
(4.87174e-16 2.59705e-16 0)
(4.72296e-16 3.02552e-16 0)
(4.55192e-16 3.43217e-16 0)
(4.35987e-16 3.81367e-16 0)
(4.14823e-16 4.16661e-16 0)
(3.91862e-16 4.4875e-16 0)
(3.67285e-16 4.7728e-16 0)
(3.41296e-16 5.01882e-16 0)
(3.14116e-16 5.22178e-16 0)
(2.85996e-16 5.37767e-16 0)
(2.57213e-16 5.48227e-16 0)
(2.28063e-16 5.53124e-16 0)
(1.98875e-16 5.51964e-16 0)
(1.70016e-16 5.44214e-16 0)
(1.41888e-16 5.29313e-16 0)
(1.1491e-16 5.06611e-16 0)
(8.95515e-17 4.75394e-16 0)
(6.63203e-17 4.34868e-16 0)
(4.57393e-17 3.84137e-16 0)
(2.8281e-17 3.22172e-16 0)
(1.44478e-17 2.47892e-16 0)
(5.29738e-18 1.60104e-16 0)
(4.38741e-20 5.98279e-17 0)
(3.16404e-20 -6.20136e-17 0)
(4.09192e-18 -1.66413e-16 0)
(1.11838e-17 -2.58065e-16 0)
(2.19162e-17 -3.35816e-16 0)
(3.5452e-17 -4.00822e-16 0)
(5.14425e-17 -4.54151e-16 0)
(6.95161e-17 -4.96815e-16 0)
(8.92575e-17 -5.29723e-16 0)
(1.10279e-16 -5.53691e-16 0)
(1.32209e-16 -5.69462e-16 0)
(1.54729e-16 -5.77729e-16 0)
(1.77501e-16 -5.79052e-16 0)
(2.00256e-16 -5.73995e-16 0)
(2.22728e-16 -5.63111e-16 0)
(2.44691e-16 -5.46836e-16 0)
(2.65914e-16 -5.25618e-16 0)
(2.86207e-16 -4.9988e-16 0)
(3.05394e-16 -4.70023e-16 0)
(3.23316e-16 -4.36433e-16 0)
(3.39832e-16 -3.99486e-16 0)
(3.54816e-16 -3.59543e-16 0)
(3.68157e-16 -3.16964e-16 0)
(3.79757e-16 -2.72101e-16 0)
(3.89536e-16 -2.25304e-16 0)
(3.97428e-16 -1.76918e-16 0)
(4.03382e-16 -1.27292e-16 0)
(4.07364e-16 -7.67744e-17 0)
(4.09352e-16 -2.57194e-17 0)
(4.09337e-16 2.55164e-17 0)
(4.07319e-16 7.65739e-17 0)
(4.03308e-16 1.27096e-16 0)
(3.97325e-16 1.76729e-16 0)
(3.89406e-16 2.25124e-16 0)
(3.79601e-16 2.71933e-16 0)
(3.67977e-16 3.16809e-16 0)
(3.54615e-16 3.59404e-16 0)
(3.39611e-16 3.99363e-16 0)
(3.23078e-16 4.36331e-16 0)
(3.05142e-16 4.69941e-16 0)
(2.85945e-16 4.9982e-16 0)
(2.65645e-16 5.25582e-16 0)
(2.44418e-16 5.46825e-16 0)
(2.22457e-16 5.63125e-16 0)
(1.99989e-16 5.74035e-16 0)
(1.77242e-16 5.79118e-16 0)
(1.54485e-16 5.77821e-16 0)
(1.31983e-16 5.69579e-16 0)
(1.10071e-16 5.5383e-16 0)
(8.90745e-17 5.29881e-16 0)
(6.93658e-17 4.96991e-16 0)
(5.13181e-17 4.54334e-16 0)
(3.53539e-17 4.01002e-16 0)
(2.18604e-17 3.35994e-16 0)
(1.11537e-17 2.58223e-16 0)
(4.07604e-18 1.66521e-16 0)
(3.39455e-20 6.20616e-17 0)
(2.22543e-20 -6.36838e-17 0)
(2.91285e-18 -1.7122e-16 0)
(7.96306e-18 -2.65791e-16 0)
(1.56102e-17 -3.46167e-16 0)
(2.52636e-17 -4.13468e-16 0)
(3.66757e-17 -4.68753e-16 0)
(4.95851e-17 -5.13028e-16 0)
(6.36997e-17 -5.47209e-16 0)
(7.8742e-17 -5.72129e-16 0)
(9.4428e-17 -5.88553e-16 0)
(1.10579e-16 -5.97192e-16 0)
(1.26853e-16 -5.98616e-16 0)
(1.43186e-16 -5.93434e-16 0)
(1.59275e-16 -5.82204e-16 0)
(1.7502e-16 -5.65389e-16 0)
(1.90232e-16 -5.43452e-16 0)
(2.04775e-16 -5.16838e-16 0)
(2.18525e-16 -4.85963e-16 0)
(2.31369e-16 -4.51226e-16 0)
(2.43204e-16 -4.13014e-16 0)
(2.53941e-16 -3.71707e-16 0)
(2.63498e-16 -3.27674e-16 0)
(2.71808e-16 -2.81281e-16 0)
(2.78812e-16 -2.3289e-16 0)
(2.84464e-16 -1.82861e-16 0)
(2.88727e-16 -1.31556e-16 0)
(2.91575e-16 -7.93343e-17 0)
(2.92995e-16 -2.65615e-17 0)
(2.92977e-16 2.63959e-17 0)
(2.91523e-16 7.91707e-17 0)
(2.88639e-16 1.31396e-16 0)
(2.84342e-16 1.82708e-16 0)
(2.78659e-16 2.32744e-16 0)
(2.71624e-16 2.81145e-16 0)
(2.63286e-16 3.27549e-16 0)
(2.53703e-16 3.71595e-16 0)
(2.42943e-16 4.12916e-16 0)
(2.31088e-16 4.51143e-16 0)
(2.18228e-16 4.85898e-16 0)
(2.04465e-16 5.16791e-16 0)
(1.89914e-16 5.43425e-16 0)
(1.74698e-16 5.65383e-16 0)
(1.58954e-16 5.82218e-16 0)
(1.4287e-16 5.93468e-16 0)
(1.26548e-16 5.98672e-16 0)
(1.1029e-16 5.9727e-16 0)
(9.41581e-17 5.88649e-16 0)
(7.84995e-17 5.72243e-16 0)
(6.34887e-17 5.4734e-16 0)
(4.94009e-17 5.13168e-16 0)
(3.65282e-17 4.68903e-16 0)
(2.5162e-17 4.13624e-16 0)
(1.55369e-17 3.46309e-16 0)
(7.92089e-18 2.65913e-16 0)
(2.90054e-18 1.71314e-16 0)
(2.23434e-20 6.37222e-17 0)
(1.29014e-20 -6.47955e-17 0)
(1.75196e-18 -1.74417e-16 0)
(4.78835e-18 -2.70935e-16 0)
(9.38507e-18 -3.5306e-16 0)
(1.51879e-17 -4.21897e-16 0)
(2.20482e-17 -4.7849e-16 0)
(2.98105e-17 -5.23846e-16 0)
(3.83021e-17 -5.58886e-16 0)
(4.7347e-17 -5.84451e-16 0)
(5.67761e-17 -6.01306e-16 0)
(6.66827e-17 -6.10107e-16 0)
(7.61653e-17 -6.11558e-16 0)
(8.62016e-17 -6.06418e-16 0)
(9.58638e-17 -5.94969e-16 0)
(1.05336e-16 -5.77792e-16 0)
(1.14488e-16 -5.55375e-16 0)
(1.23235e-16 -5.28175e-16 0)
(1.31509e-16 -4.96619e-16 0)
(1.39237e-16 -4.61114e-16 0)
(1.46358e-16 -4.22057e-16 0)
(1.52816e-16 -3.79837e-16 0)
(1.58564e-16 -3.3483e-16 0)
(1.6356e-16 -2.87414e-16 0)
(1.6777e-16 -2.37957e-16 0)
(1.71165e-16 -1.8683e-16 0)
(1.73723e-16 -1.344e-16 0)
(1.75431e-16 -8.1039e-17 0)
(1.76277e-16 -2.71167e-17 0)
(1.76257e-16 2.6993e-17 0)
(1.75372e-16 8.09166e-17 0)
(1.73626e-16 1.34281e-16 0)
(1.7103e-16 1.86715e-16 0)
(1.67599e-16 2.37848e-16 0)
(1.63356e-16 2.87312e-16 0)
(1.58328e-16 3.34738e-16 0)
(1.52551e-16 3.79753e-16 0)
(1.46067e-16 4.21986e-16 0)
(1.38925e-16 4.61054e-16 0)
(1.31178e-16 4.96572e-16 0)
(1.22891e-16 5.28143e-16 0)
(1.14134e-16 5.55357e-16 0)
(1.04977e-16 5.77789e-16 0)
(9.55063e-17 5.94982e-16 0)
(8.58505e-17 6.06447e-16 0)
(7.58234e-17 6.11601e-16 0)
(6.6361e-17 6.10166e-16 0)
(5.64779e-17 6.01379e-16 0)
(4.70764e-17 5.84537e-16 0)
(3.80615e-17 5.58983e-16 0)
(2.96125e-17 5.23954e-16 0)
(2.18929e-17 4.78603e-16 0)
(1.50598e-17 4.22006e-16 0)
(9.3019e-18 3.53169e-16 0)
(4.75076e-18 2.71034e-16 0)
(1.73321e-18 1.74485e-16 0)
(1.36709e-20 6.48262e-17 0)
(5.55321e-21 -6.53541e-17 0)
(6.01601e-19 -1.76026e-16 0)
(1.64057e-18 -2.7352e-16 0)
(3.2065e-18 -3.56524e-16 0)
(5.17783e-18 -4.26131e-16 0)
(7.50318e-18 -4.83379e-16 0)
(1.01277e-17 -5.29273e-16 0)
(1.29958e-17 -5.64735e-16 0)
(1.6038e-17 -5.90625e-16 0)
(1.9136e-17 -6.07715e-16 0)
(2.24945e-17 -6.1671e-16 0)
(2.57568e-17 -6.18343e-16 0)
(2.93845e-17 -6.12982e-16 0)
(3.24567e-17 -6.01354e-16 0)
(3.56171e-17 -5.83986e-16 0)
(3.86882e-17 -5.61344e-16 0)
(4.16197e-17 -5.33858e-16 0)
(4.43937e-17 -5.01961e-16 0)
(4.6985e-17 -4.66071e-16 0)
(4.9371e-17 -4.2659e-16 0)
(5.15329e-17 -3.8391e-16 0)
(5.34549e-17 -3.38415e-16 0)
(5.51233e-17 -2.90483e-16 0)
(5.65264e-17 -2.40491e-16 0)
(5.7655e-17 -1.88812e-16 0)
(5.85018e-17 -1.35818e-16 0)
(5.90616e-17 -8.18835e-17 0)
(5.93319e-17 -2.73843e-17 0)
(5.9311e-17 2.73041e-17 0)
(5.8999e-17 8.18049e-17 0)
(5.8398e-17 1.35741e-16 0)
(5.75115e-17 1.88738e-16 0)
(5.63446e-17 2.40422e-16 0)
(5.49056e-17 2.90419e-16 0)
(5.32036e-17 3.38356e-16 0)
(5.12508e-17 3.83858e-16 0)
(4.90616e-17 4.26546e-16 0)
(4.6652e-17 4.66035e-16 0)
(4.40415e-17 5.01933e-16 0)
(4.12527e-17 5.33839e-16 0)
(3.83111e-17 5.61335e-16 0)
(3.52356e-17 5.83987e-16 0)
(3.20763e-17 6.01365e-16 0)
(2.90113e-17 6.13003e-16 0)
(2.53951e-17 6.18374e-16 0)
(2.2151e-17 6.16748e-16 0)
(1.88164e-17 6.07762e-16 0)
(1.57494e-17 5.9068e-16 0)
(1.27459e-17 5.64797e-16 0)
(9.91136e-18 5.2934e-16 0)
(7.32327e-18 4.8345e-16 0)
(5.05505e-18 4.26206e-16 0)
(3.12517e-18 3.56594e-16 0)
(1.58368e-18 2.73579e-16 0)
(5.78781e-19 1.76078e-16 0)
(4.10816e-21 6.53747e-17 0)
(-4.06628e-21 -6.53654e-17 0)
(-5.43543e-19 -1.76053e-16 0)
(-1.49887e-18 -2.73558e-16 0)
(-2.95825e-18 -3.56571e-16 0)
(-4.81105e-18 -4.26183e-16 0)
(-7.01261e-18 -4.83434e-16 0)
(-9.51235e-18 -5.29328e-16 0)
(-1.22552e-17 -5.64789e-16 0)
(-1.51771e-17 -5.90677e-16 0)
(-1.81623e-17 -6.07765e-16 0)
(-2.14082e-17 -6.16758e-16 0)
(-2.45713e-17 -6.18387e-16 0)
(-2.81026e-17 -6.13022e-16 0)
(-3.10889e-17 -6.0139e-16 0)
(-3.41728e-17 -5.84018e-16 0)
(-3.71764e-17 -5.61371e-16 0)
(-4.00497e-17 -5.33881e-16 0)
(-4.27748e-17 -5.01979e-16 0)
(-4.53263e-17 -4.66085e-16 0)
(-4.76815e-17 -4.266e-16 0)
(-4.9822e-17 -3.83915e-16 0)
(-5.17311e-17 -3.38416e-16 0)
(-5.33952e-17 -2.9048e-16 0)
(-5.48027e-17 -2.40484e-16 0)
(-5.59439e-17 -1.88801e-16 0)
(-5.68112e-17 -1.35804e-16 0)
(-5.73996e-17 -8.1866e-17 0)
(-5.77056e-17 -2.7363e-17 0)
(-5.77269e-17 2.73282e-17 0)
(-5.74638e-17 8.18315e-17 0)
(-5.69178e-17 1.3577e-16 0)
(-5.60913e-17 1.88769e-16 0)
(-5.49893e-17 2.40455e-16 0)
(-5.36191e-17 2.90454e-16 0)
(-5.19892e-17 3.38392e-16 0)
(-5.01116e-17 3.83895e-16 0)
(-4.79996e-17 4.26583e-16 0)
(-4.56686e-17 4.66073e-16 0)
(-4.31371e-17 5.01971e-16 0)
(-4.04273e-17 5.33876e-16 0)
(-3.75642e-17 5.61371e-16 0)
(-3.45657e-17 5.84022e-16 0)
(-3.14808e-17 6.01397e-16 0)
(-2.84884e-17 6.13034e-16 0)
(-2.49423e-17 6.18402e-16 0)
(-2.17611e-17 6.16775e-16 0)
(-1.84884e-17 6.07784e-16 0)
(-1.54749e-17 5.90699e-16 0)
(-1.25223e-17 5.64814e-16 0)
(-9.73342e-18 5.29357e-16 0)
(-7.18319e-18 4.83463e-16 0)
(-4.95447e-18 4.26211e-16 0)
(-3.05992e-18 3.56604e-16 0)
(-1.54263e-18 2.73591e-16 0)
(-5.6516e-19 1.76077e-16 0)
(-5.48493e-21 6.53773e-17 0)
(-1.23494e-20 -6.48286e-17 0)
(-1.69451e-18 -1.74498e-16 0)
(-4.65039e-18 -2.7105e-16 0)
(-9.14256e-18 -3.532e-16 0)
(-1.48299e-17 -4.22051e-16 0)
(-2.15713e-17 -4.78652e-16 0)
(-2.92125e-17 -5.24009e-16 0)
(-3.7583e-17 -5.59046e-16 0)
(-4.6511e-17 -5.84606e-16 0)
(-5.58283e-17 -6.01454e-16 0)
(-6.56291e-17 -6.10247e-16 0)
(-7.50091e-17 -6.11687e-16 0)
(-8.49592e-17 -6.06535e-16 0)
(-9.45393e-17 -5.95074e-16 0)
(-1.03938e-16 -5.77884e-16 0)
(-1.13025e-16 -5.55454e-16 0)
(-1.21716e-16 -5.28241e-16 0)
(-1.29943e-16 -4.96672e-16 0)
(-1.37633e-16 -4.61154e-16 0)
(-1.44724e-16 -4.22085e-16 0)
(-1.51161e-16 -3.79852e-16 0)
(-1.56896e-16 -3.34834e-16 0)
(-1.61889e-16 -2.87405e-16 0)
(-1.66103e-16 -2.37937e-16 0)
(-1.6951e-16 -1.86798e-16 0)
(-1.72088e-16 -1.34358e-16 0)
(-1.73823e-16 -8.0986e-17 0)
(-1.74703e-16 -2.70545e-17 0)
(-1.74724e-16 2.70644e-17 0)
(-1.73887e-16 8.0996e-17 0)
(-1.72194e-16 1.34368e-16 0)
(-1.69656e-16 1.86808e-16 0)
(-1.66288e-16 2.37947e-16 0)
(-1.62111e-16 2.87416e-16 0)
(-1.57154e-16 3.34845e-16 0)
(-1.51449e-16 3.79863e-16 0)
(-1.4504e-16 4.22097e-16 0)
(-1.37973e-16 4.61165e-16 0)
(-1.30304e-16 4.96682e-16 0)
(-1.22093e-16 5.28251e-16 0)
(-1.13412e-16 5.55463e-16 0)
(-1.0433e-16 5.77891e-16 0)
(-9.49308e-17 5.95078e-16 0)
(-8.53443e-17 6.06537e-16 0)
(-7.53807e-17 6.11685e-16 0)
(-6.59832e-17 6.10242e-16 0)
(-5.61599e-17 6.01447e-16 0)
(-4.68111e-17 5.84597e-16 0)
(-3.78431e-17 5.59034e-16 0)
(-2.94404e-17 5.23995e-16 0)
(-2.17652e-17 4.7864e-16 0)
(-1.49616e-17 4.22042e-16 0)
(-9.22819e-18 3.53189e-16 0)
(-4.71723e-18 2.71047e-16 0)
(-1.7261e-18 1.74501e-16 0)
(-1.42548e-20 6.48312e-17 0)
(-2.08331e-20 -6.37381e-17 0)
(-2.85773e-18 -1.7135e-16 0)
(-7.83e-18 -2.6598e-16 0)
(-1.53801e-17 -3.46394e-16 0)
(-2.49251e-17 -4.1372e-16 0)
(-3.62249e-17 -4.69015e-16 0)
(-4.90226e-17 -5.13292e-16 0)
(-6.30248e-17 -5.4747e-16 0)
(-7.79586e-17 -5.7238e-16 0)
(-9.35408e-17 -5.88793e-16 0)
(-1.09594e-16 -5.97418e-16 0)
(-1.25778e-16 -5.98824e-16 0)
(-1.42027e-16 -5.93622e-16 0)
(-1.5804e-16 -5.82373e-16 0)
(-1.73717e-16 -5.65538e-16 0)
(-1.88869e-16 -5.4358e-16 0)
(-2.03359e-16 -5.16945e-16 0)
(-2.17065e-16 -4.86049e-16 0)
(-2.29873e-16 -4.5129e-16 0)
(-2.41681e-16 -4.13059e-16 0)
(-2.52398e-16 -3.71731e-16 0)
(-2.61944e-16 -3.27679e-16 0)
(-2.70249e-16 -2.81265e-16 0)
(-2.77257e-16 -2.32856e-16 0)
(-2.8292e-16 -1.82809e-16 0)
(-2.87202e-16 -1.31486e-16 0)
(-2.90076e-16 -7.92473e-17 0)
(-2.91527e-16 -2.64598e-17 0)
(-2.91548e-16 2.6513e-17 0)
(-2.90137e-16 7.93001e-17 0)
(-2.87303e-16 1.31538e-16 0)
(-2.83061e-16 1.82859e-16 0)
(-2.77436e-16 2.32905e-16 0)
(-2.70463e-16 2.81312e-16 0)
(-2.62191e-16 3.27723e-16 0)
(-2.52675e-16 3.71772e-16 0)
(-2.41986e-16 4.13097e-16 0)
(-2.30202e-16 4.51324e-16 0)
(-2.17413e-16 4.86078e-16 0)
(-2.03722e-16 5.16967e-16 0)
(-1.89242e-16 5.43597e-16 0)
(-1.74096e-16 5.65546e-16 0)
(-1.58418e-16 5.82375e-16 0)
(-1.424e-16 5.93614e-16 0)
(-1.26141e-16 5.98808e-16 0)
(-1.0994e-16 5.97394e-16 0)
(-9.38607e-17 5.88761e-16 0)
(-7.82534e-17 5.72337e-16 0)
(-6.32923e-17 5.47423e-16 0)
(-4.92425e-17 5.13242e-16 0)
(-3.63951e-17 4.68959e-16 0)
(-2.50763e-17 4.13665e-16 0)
(-1.54903e-17 3.4635e-16 0)
(-7.87709e-18 2.65946e-16 0)
(-2.88355e-18 1.71329e-16 0)
(-2.40224e-20 6.37319e-17 0)
(-3.10027e-20 -6.20878e-17 0)
(-4.04027e-18 -1.66591e-16 0)
(-1.10608e-17 -2.58321e-16 0)
(-2.17037e-17 -3.36124e-16 0)
(-3.51434e-17 -4.0116e-16 0)
(-5.1034e-17 -4.54504e-16 0)
(-6.90083e-17 -4.97172e-16 0)
(-8.86495e-17 -5.30075e-16 0)
(-1.09576e-16 -5.54031e-16 0)
(-1.31417e-16 -5.69784e-16 0)
(-1.53849e-16 -5.78032e-16 0)
(-1.76541e-16 -5.79331e-16 0)
(-1.99223e-16 -5.74248e-16 0)
(-2.21627e-16 -5.63337e-16 0)
(-2.43529e-16 -5.47036e-16 0)
(-2.64699e-16 -5.25789e-16 0)
(-2.84945e-16 -5.00024e-16 0)
(-3.04093e-16 -4.70138e-16 0)
(-3.21983e-16 -4.36522e-16 0)
(-3.38475e-16 -3.99544e-16 0)
(-3.53441e-16 -3.59576e-16 0)
(-3.66771e-16 -3.16969e-16 0)
(-3.78368e-16 -2.72081e-16 0)
(-3.8815e-16 -2.25256e-16 0)
(-3.96052e-16 -1.76848e-16 0)
(-4.02022e-16 -1.27196e-16 0)
(-4.06027e-16 -7.66583e-17 0)
(-4.08043e-16 -2.55799e-17 0)
(-4.08063e-16 2.5673e-17 0)
(-4.06084e-16 7.67507e-17 0)
(-4.02117e-16 1.27287e-16 0)
(-3.96182e-16 1.76936e-16 0)
(-3.88315e-16 2.25341e-16 0)
(-3.78566e-16 2.72162e-16 0)
(-3.67e-16 3.17044e-16 0)
(-3.53698e-16 3.59646e-16 0)
(-3.38757e-16 3.99607e-16 0)
(-3.22288e-16 4.36577e-16 0)
(-3.04416e-16 4.70183e-16 0)
(-2.85283e-16 5.00059e-16 0)
(-2.65047e-16 5.25813e-16 0)
(-2.43882e-16 5.47048e-16 0)
(-2.21981e-16 5.63335e-16 0)
(-1.99573e-16 5.74233e-16 0)
(-1.7688e-16 5.79301e-16 0)
(-1.54174e-16 5.77988e-16 0)
(-1.31725e-16 5.69725e-16 0)
(-1.09855e-16 5.53962e-16 0)
(-8.88904e-17 5.29994e-16 0)
(-6.92288e-17 4.97078e-16 0)
(-5.12265e-17 4.54412e-16 0)
(-3.52694e-17 4.01071e-16 0)
(-2.17882e-17 3.36038e-16 0)
(-1.11359e-17 2.58251e-16 0)
(-4.07722e-18 1.66551e-16 0)
(-3.50291e-20 6.20718e-17 0)
(-4.07728e-20 -5.98655e-17 0)
(-5.25119e-18 -1.60191e-16 0)
(-1.43602e-17 -2.48032e-16 0)
(-2.81527e-17 -3.22345e-16 0)
(-4.55381e-17 -3.84332e-16 0)
(-6.60618e-17 -4.35087e-16 0)
(-8.92421e-17 -4.75629e-16 0)
(-1.14536e-16 -5.06855e-16 0)
(-1.41452e-16 -5.29565e-16 0)
(-1.69524e-16 -5.44472e-16 0)
(-1.98325e-16 -5.52227e-16 0)
(-2.27457e-16 -5.53388e-16 0)
(-2.56552e-16 -5.4849e-16 0)