/*--------------------------------*- C++ -*----------------------------------*\
| =========                 |                                                 |
| \\      /  F ield         | OpenFOAM: The Open Source CFD Toolbox           |
|  \\    /   O peration     | Version:  5.0                                   |
|   \\  /    A nd           | Web:      www.OpenFOAM.org                      |
|    \\/     M anipulation  |                                                 |
\*---------------------------------------------------------------------------*/
FoamFile
{
    version     2.0;
    format      ascii;
    class       surfaceScalarField;
    location    "333";
    object      phi;
}
// * * * * * * * * * * * * * * * * * * * * * * * * * * * * * * * * * * * * * //

dimensions      [0 3 -1 0 0 0 0];

internalField   nonuniform List<scalar> 
3052
(
1.63615e-23
-2.49799e-23
6.71368e-23
-5.09606e-23
1.45305e-22
-7.83362e-23
2.40615e-22
-9.54532e-23
3.50794e-22
-1.10309e-22
4.75843e-22
-1.25162e-22
6.10809e-22
-1.35071e-22
7.53538e-22
-1.42831e-22
9.02455e-22
-1.49017e-22
1.05526e-21
-1.52895e-22
1.20991e-21
-1.54745e-22
1.36479e-21
-1.54969e-22
1.51832e-21
-1.53612e-22
1.66891e-21
-1.50666e-22
1.81516e-21
-1.46331e-22
1.9558e-21
-1.40712e-22
2.0896e-21
-1.33864e-22
2.21546e-21
-1.25931e-22
2.33239e-21
-1.16989e-22
2.4395e-21
-1.07164e-22
2.53596e-21
-9.65147e-23
2.62111e-21
-8.51839e-23
2.69429e-21
-7.32229e-23
2.75478e-21
-6.05145e-23
2.80251e-21
-4.7754e-23
2.83749e-21
-3.5e-23
2.85872e-21
-2.12404e-23
2.86582e-21
-7.10271e-24
2.8589e-21
6.92179e-24
2.8379e-21
2.102e-23
2.80312e-21
3.48032e-23
2.75559e-21
4.75703e-23
2.69526e-21
6.03762e-23
2.62226e-21
7.30601e-23
2.53729e-21
8.50318e-23
2.44103e-21
9.63272e-23
2.33406e-21
1.07046e-22
2.21731e-21
1.16828e-22
2.09157e-21
1.25816e-22
1.95789e-21
1.3376e-22
1.81736e-21
1.40613e-22
1.67124e-21
1.46203e-22
1.52072e-21
1.50595e-22
1.36729e-21
1.53517e-22
1.21242e-21
1.54957e-22
1.05779e-21
1.54724e-22
9.05115e-22
1.52765e-22
7.56326e-22
1.48889e-22
6.13381e-22
1.43054e-22
4.78535e-22
1.34937e-22
3.54251e-22
1.24388e-22
2.43113e-22
1.11259e-22
1.47975e-22
9.52366e-23
7.21057e-23
7.59868e-23
2.16102e-23
5.05852e-23
2.1623e-23
1.69396e-23
-4.20953e-23
6.27933e-23
-9.73385e-23
1.29499e-22
-1.45499e-22
2.17079e-22
-1.8344e-22
3.2158e-22
-2.15169e-22
4.36672e-22
-2.40588e-22
5.61978e-22
-2.60696e-22
6.95355e-22
-2.7651e-22
8.33952e-22
-2.87903e-22
9.76076e-22
-2.95297e-22
1.12018e-21
-2.99111e-22
1.2645e-21
-2.99544e-22
1.40743e-21
-2.96781e-22
1.54762e-21
-2.91091e-22
1.68378e-21
-2.82715e-22
1.81465e-21
-2.71803e-22
1.93916e-21
-2.58571e-22
2.05627e-21
-2.43228e-22
2.16506e-21
-2.25944e-22
2.26466e-21
-2.06912e-22
2.35433e-21
-1.86316e-22
2.43339e-21
-1.64358e-22
2.50127e-21
-1.412e-22
2.55773e-21
-1.17052e-22
2.60248e-21
-9.2565e-23
2.6349e-21
-6.74562e-23
2.65472e-21
-4.10724e-23
2.66147e-21
-1.38455e-23
2.65493e-21
1.35037e-23
2.63526e-21
4.0752e-23
2.60299e-21
6.71768e-23
2.5584e-21
9.2282e-23
2.50215e-21
1.16777e-22
2.43445e-21
1.40925e-22
2.35556e-21
1.64121e-22
2.26602e-21
1.86065e-22
2.1666e-21
2.06692e-22
2.05794e-21
2.25716e-22
1.94096e-21
2.43025e-22
1.81659e-21
2.58368e-22
1.68581e-21
2.71626e-22
1.54972e-21
2.82543e-22
1.40959e-21
2.90967e-22
1.26672e-21
2.96648e-22
1.12253e-21
2.99426e-22
9.78502e-22
2.99025e-22
8.36321e-22
2.95246e-22
6.97734e-22
2.8779e-22
5.64691e-22
2.76381e-22
4.39308e-22
2.60656e-22
3.23701e-22
2.40337e-22
2.20505e-22
2.1475e-22
1.32964e-22
1.83144e-22
6.46514e-23
1.44574e-22
1.84709e-23
9.70791e-23
4.01094e-23
1.25853e-23
-5.48402e-23
5.34741e-23
-1.38566e-22
1.15213e-22
-2.07544e-22
1.95464e-22
-2.63968e-22
2.89643e-22
-3.09613e-22
3.96244e-22
-3.47436e-22
5.12352e-22
-3.77035e-22
6.35494e-22
-3.99873e-22
7.63844e-22
-4.16461e-22
8.95639e-22
-4.27287e-22
1.02913e-21
-4.32788e-22
1.16275e-21
-4.33345e-22
1.29518e-21
-4.29379e-22
1.42507e-21
-4.21143e-22
1.55116e-21
-4.08961e-22
1.67236e-21
-3.93143e-22
1.78766e-21
-3.73996e-22
1.89607e-21
-3.51754e-22
1.99675e-21
-3.26735e-22
2.08894e-21
-2.99193e-22
2.17196e-21
-2.6941e-22
2.24517e-21
-2.37636e-22
2.3081e-21
-2.04183e-22
2.36038e-21
-1.69367e-22
2.40141e-21
-1.33624e-22
2.43077e-21
-9.68279e-23
2.4485e-21
-5.87986e-23
2.4545e-21
-1.98304e-23
2.44864e-21
1.94035e-23
2.43106e-21
5.8371e-23
2.40188e-21
9.64214e-23
2.361e-21
1.33239e-22
2.30886e-21
1.69012e-22
2.24606e-21
2.03826e-22
2.17301e-21
2.37289e-22
2.09013e-21
2.69074e-22
1.99808e-21
2.98884e-22
1.8975e-21
3.26438e-22
1.7892e-21
3.51478e-22
1.67399e-21
3.73739e-22
1.55288e-21
3.92908e-22
1.42686e-21
4.08741e-22
1.29707e-21
4.20948e-22
1.16468e-21
4.29231e-22
1.03106e-21
4.33243e-22
8.97615e-22
4.32694e-22
7.6588e-22
4.27201e-22
6.37537e-22
4.16358e-22
5.1439e-22
3.99806e-22
3.98298e-22
3.7698e-22
2.91774e-22
3.47099e-22
1.97216e-22
3.0962e-22
1.17097e-22
2.63478e-22
5.49754e-23
2.07054e-22
1.46955e-23
1.37528e-22
5.48177e-23
1.22819e-23
-6.71852e-23
4.74984e-23
-1.73964e-22
1.02041e-22
-2.62259e-22
1.7393e-22
-3.36032e-22
2.60278e-22
-3.96126e-22
3.57335e-22
-4.44654e-22
4.63486e-22
-4.83339e-22
5.76511e-22
-5.1304e-22
6.94393e-22
-5.34473e-22
8.15473e-22
-5.48489e-22
9.38247e-22
-5.55679e-22
1.06123e-21
-5.56438e-22
1.18304e-21
-5.51288e-22
1.3025e-21
-5.40697e-22
1.41849e-21
-5.25039e-22
1.52999e-21
-5.04709e-22
1.636e-21
-4.80078e-22
1.73571e-21
-4.51516e-22
1.8283e-21
-4.19374e-22
1.91307e-21
-3.84003e-22
1.98938e-21
-3.45751e-22
2.0567e-21
-3.04978e-22
2.11453e-21
-2.62037e-22
2.16245e-21
-2.17294e-22
2.19993e-21
-1.71107e-22
2.2267e-21
-1.23589e-22
2.24275e-21
-7.4834e-23
2.24815e-21
-2.5213e-23
2.24289e-21
2.46792e-23
2.22697e-21
7.43248e-23
2.20031e-21
1.231e-22
2.16295e-21
1.70638e-22
2.11517e-21
2.16825e-22
2.05744e-21
2.61596e-22
1.99023e-21
3.04551e-22
1.91401e-21
3.45356e-22
1.82934e-21
3.83615e-22
1.73684e-21
4.19018e-22
1.63722e-21
4.51176e-22
1.53129e-21
4.79765e-22
1.41988e-21
5.0443e-22
1.30393e-21
5.24807e-22
1.18451e-21
5.40495e-22
1.06273e-21
5.51138e-22
9.39811e-22
5.56313e-22
8.17071e-22
5.55579e-22
6.95967e-22
5.48469e-22
5.7802e-22
5.34496e-22
4.64998e-22
5.12986e-22
3.5891e-22
4.83273e-22
2.61558e-22
4.44682e-22
1.75228e-22
3.96103e-22
1.03216e-22
3.35746e-22
4.81893e-23
2.62221e-22
1.2994e-23
1.72968e-22
6.78221e-23
1.15786e-23
-7.88109e-23
4.12624e-23
-2.03726e-22
9.05582e-23
-3.11645e-22
1.54638e-22
-4.00207e-22
2.31809e-22
-4.73403e-22
3.19567e-22
-5.32517e-22
4.15749e-22
-5.79624e-22
5.18303e-22
-6.15689e-22
6.25524e-22
-6.41782e-22
7.3583e-22
-6.58879e-22
8.47646e-22
-6.67572e-22
9.59676e-22
-6.68539e-22
1.07073e-21
-6.62407e-22
1.17966e-21
-6.4968e-22
1.28541e-21
-6.30838e-22
1.38705e-21
-6.0639e-22
1.48371e-21
-5.76763e-22
1.57458e-21
-5.4242e-22
1.65896e-21
-5.03773e-22
1.7362e-21
-4.61262e-22
1.80573e-21
-4.15289e-22
1.86704e-21
-3.66291e-22
1.91966e-21
-3.14659e-22
1.9632e-21
-2.6083e-22
1.99726e-21
-2.0516e-22
2.02163e-21
-1.47951e-22
2.03626e-21
-8.94476e-23
2.04117e-21
-3.0108e-23
2.03635e-21
2.95239e-23
2.02182e-21
8.88717e-23
1.99755e-21
1.47383e-22
1.96359e-21
2.04617e-22
1.92012e-21
2.60303e-22
1.86758e-21
3.14153e-22
1.80636e-21
3.65795e-22
1.73691e-21
4.14821e-22
1.65974e-21
4.6082e-22
1.57544e-21
5.03359e-22
1.48462e-21
5.42045e-22
1.38802e-21
5.76431e-22
1.28643e-21
6.06093e-22
1.18074e-21
6.30583e-22
1.07185e-21
6.49477e-22
9.60827e-22
6.62263e-22
8.48792e-22
6.68456e-22
7.36969e-22
6.67526e-22
6.26678e-22
6.58886e-22
5.19466e-22
6.41831e-22
4.16879e-22
6.15745e-22
3.20517e-22
5.79792e-22
2.32643e-22
5.32683e-22
1.55604e-22
4.73338e-22
9.09672e-23
4.005e-22
4.17469e-23
3.11714e-22
1.06687e-23
2.04122e-22
7.84983e-23
9.15499e-24
-8.7964e-23
3.63972e-23
-2.31011e-22
7.91785e-23
-3.54475e-22
1.36131e-22
-4.57223e-22
2.04689e-22
-5.42034e-22
2.8303e-22
-6.10936e-22
3.69074e-22
-6.65746e-22
4.61048e-22
-7.07738e-22
5.57385e-22
-7.3819e-22
6.56574e-22
-7.58132e-22
7.57242e-22
-7.68299e-22
8.58188e-22
-7.69538e-22
9.58271e-22
-7.62535e-22
1.05644e-21
-7.47886e-22
1.15177e-21
-7.26201e-22
1.24339e-21
-6.98032e-22
1.33051e-21
-6.63909e-22
1.41242e-21
-6.24342e-22
1.48846e-21
-5.79831e-22
1.55805e-21
-5.30863e-22
1.62068e-21
-4.77925e-22
1.67588e-21
-4.21486e-22
1.72324e-21
-3.62018e-22
1.76239e-21
-2.9998e-22
1.79305e-21
-2.35809e-22
1.81501e-21
-1.69893e-22
1.82821e-21
-1.02632e-22
1.83263e-21
-3.45113e-23
1.82827e-21
3.38996e-23
1.81513e-21
1.02024e-22
1.79323e-21
1.69294e-22
1.76264e-21
2.3522e-22
1.72355e-21
2.99405e-22
1.67625e-21
3.61459e-22
1.62111e-21
4.20951e-22
1.55853e-21
4.77415e-22
1.48898e-21
5.3039e-22
1.41298e-21
5.79392e-22
1.33112e-21
6.23943e-22
1.24404e-21
6.63557e-22
1.15246e-21
6.97732e-22
1.05716e-21
7.25958e-22
9.59015e-22
7.47702e-22
8.5896e-22
7.62405e-22
7.58026e-22
7.69486e-22
6.57349e-22
7.683e-22
5.58184e-22
7.58159e-22
4.61793e-22
7.38353e-22
3.69706e-22
7.07942e-22
2.83756e-22
6.65872e-22
2.054e-22
6.11201e-22
1.36379e-22
5.42456e-22
7.95386e-23
4.57503e-22
3.67757e-23
3.54519e-22
9.81155e-24
2.31262e-22
8.8316e-23
8.07128e-24
-9.60586e-23
3.16171e-23
-2.54598e-22
6.88517e-23
-3.91762e-22
1.18517e-22
-5.06947e-22
1.78626e-22
-6.02209e-22
2.47472e-22
-6.79854e-22
3.23327e-22
-7.41674e-22
4.04642e-22
-7.89126e-22
4.89941e-22
-8.23558e-22
5.77836e-22
-8.46092e-22
6.67152e-22
-8.57675e-22
7.56768e-22
-8.59207e-22
8.4564e-22
-8.51452e-22
9.3285e-22
-8.35136e-22
1.01755e-21
-8.10935e-22
1.09896e-21
-7.79469e-22
1.17637e-21
-7.41344e-22
1.24914e-21
-6.97135e-22
1.3167e-21
-6.47406e-22
1.37852e-21
-5.92698e-22
1.43414e-21
-5.33553e-22
1.48314e-21
-4.70496e-22
1.52517e-21
-4.04052e-22
1.55991e-21
-3.34722e-22
1.58712e-21
-2.63012e-22
1.60662e-21
-1.89387e-22
1.61835e-21
-1.14347e-22
1.62228e-21
-3.84252e-23
1.61839e-21
3.7799e-23
1.60671e-21
1.13729e-22
1.58724e-21
1.8878e-22
1.56006e-21
2.62412e-22
1.52535e-21
3.34138e-22
1.48335e-21
4.03483e-22
1.43437e-21
4.69953e-22
1.37877e-21
5.33037e-22
1.31698e-21
5.92216e-22
1.24944e-21
6.46964e-22
1.1767e-21
6.96737e-22
1.09931e-21
7.40995e-22
1.01793e-21
7.79176e-22
9.33253e-22
8.10702e-22
8.46065e-22
8.34966e-22
7.57205e-22
8.51346e-22
6.67612e-22
8.59166e-22
5.78294e-22
8.57715e-22
4.90351e-22
8.46204e-22
4.05073e-22
8.23725e-22
3.23792e-22
7.89347e-22
2.47762e-22
7.42028e-22
1.78804e-22
6.80247e-22
1.18874e-22
6.02505e-22
6.91009e-23
5.07346e-22
3.14594e-23
3.92361e-22
8.01121e-24
2.54721e-22
9.63311e-23
7.12187e-24
-1.03186e-22
2.69368e-23
-2.74478e-22
5.89379e-23
-4.23823e-22
1.01528e-22
-5.496e-22
1.53334e-22
-6.54081e-22
2.1283e-22
-7.3942e-22
2.78511e-22
-8.07427e-22
3.4904e-22
-8.59727e-22
4.23146e-22
-8.97734e-22
4.99618e-22
-9.22628e-22
5.77393e-22
-9.35509e-22
6.55463e-22
-9.37329e-22
7.32929e-22
-9.28965e-22
8.08972e-22
-9.11221e-22
8.82834e-22
-8.84834e-22
9.53834e-22
-8.50501e-22
1.02135e-21
-8.0889e-22
1.08482e-21
-7.60631e-22
1.14374e-21
-7.06342e-22
1.19764e-21
-6.4662e-22
1.24613e-21
-5.82056e-22
1.28884e-21
-5.1322e-22
1.32547e-21
-4.40683e-22
1.35574e-21
-3.65001e-22
1.37946e-21
-2.86726e-22
1.39647e-21
-2.06399e-22
1.40671e-21
-1.24573e-22
1.41012e-21
-4.18276e-23
1.40671e-21
4.12251e-23
1.39649e-21
1.23973e-22
1.37949e-21
2.05808e-22
1.35578e-21
2.86146e-22
1.32551e-21
3.64435e-22
1.28889e-21
4.40133e-22
1.24619e-21
5.12692e-22
1.19771e-21
5.81554e-22
1.14381e-21
6.46151e-22
1.08491e-21
7.05912e-22
1.02145e-21
7.60247e-22
9.53946e-22
8.08557e-22
8.82959e-22
8.50225e-22
8.09111e-22
8.84616e-22
7.33082e-22
9.11066e-22
6.55625e-22
9.28879e-22
5.77555e-22
9.37318e-22
4.99788e-22
9.35567e-22
4.23332e-22
9.22749e-22
3.49219e-22
8.97943e-22
2.78622e-22
8.60035e-22
2.13007e-22
8.07734e-22
1.53567e-22
7.39799e-22
1.01512e-22
6.54636e-22
5.88813e-23
5.50074e-22
2.70795e-23
4.24146e-22
7.14633e-24
2.7478e-22
1.03481e-22
5.85376e-24
-1.09074e-22
2.2521e-23
-2.91202e-22
4.93434e-23
-4.50704e-22
8.51413e-23
-5.85457e-22
1.28766e-22
-6.97764e-22
1.78937e-22
-7.89651e-22
2.34462e-22
-8.63013e-22
2.94189e-22
-9.19515e-22
3.57006e-22
-9.60609e-22
4.21907e-22
-9.87584e-22
4.87976e-22
-1.00163e-21
5.5434e-22
-1.00374e-21
6.20215e-22
-9.9488e-22
6.84897e-22
-9.75939e-22
7.47741e-22
-9.4771e-22
8.08157e-22
-9.10945e-22
8.65608e-22
-8.66366e-22
9.19612e-22
-8.14657e-22
9.69739e-22
-7.56486e-22
1.0156e-21
-6.92496e-22
1.05684e-21
-6.23312e-22
1.09317e-21
-5.49555e-22
1.12431e-21
-4.71835e-22
1.15006e-21
-3.90754e-22
1.17024e-21
-3.06901e-22
1.18471e-21
-2.20875e-22
1.19342e-21
-1.33274e-22
1.19632e-21
-4.4717e-23
1.19341e-21
4.41591e-23
1.18468e-21
1.32718e-22
1.17019e-21
2.20321e-22
1.15001e-21
3.06357e-22
1.12425e-21
3.90223e-22
1.09309e-21
4.71322e-22
1.05675e-21
5.49062e-22
1.0155e-21
6.22844e-22
9.69634e-22
6.92059e-22
9.19502e-22
7.56086e-22
8.65496e-22
8.143e-22
8.08047e-22
8.66055e-22
7.47637e-22
9.10687e-22
6.848e-22
9.47509e-22
6.20124e-22
9.75802e-22
5.5426e-22
9.94806e-22
4.87914e-22
1.00373e-21
4.21861e-22
1.00169e-21
3.56952e-22
9.87737e-22
2.94145e-22
9.60818e-22
2.34469e-22
9.19792e-22
1.78897e-22
8.63399e-22
1.28667e-22
7.90087e-22
8.52082e-23
6.98151e-22
4.94062e-23
5.85915e-22
2.24658e-23
4.51231e-22
5.71726e-24
2.915e-22
1.092e-22
4.71197e-24
-1.13792e-22
1.82644e-23
-3.04814e-22
4.00473e-23
-4.7254e-22
6.91842e-23
-6.14642e-22
1.04718e-22
-7.33344e-22
1.45661e-22
-8.3064e-22
1.91063e-22
-9.0846e-22
2.39963e-22
-9.6846e-22
2.91447e-22
-1.01214e-21
3.44694e-22
-1.04087e-21
3.98926e-22
-1.0559e-21
4.53428e-22
-1.05827e-21
5.0755e-22
-1.04903e-21
5.60714e-22
-1.02913e-21
6.12372e-22
-9.99392e-22
6.6204e-22
-9.60633e-22
7.09271e-22
-9.13614e-22
7.53674e-22
-8.59074e-22
7.94883e-22
-7.97707e-22
8.3258e-22
-7.30202e-22
8.66479e-22
-6.57219e-22
8.96337e-22
-5.7942e-22
9.21932e-22
-4.97436e-22
9.43088e-22
-4.11912e-22
9.59664e-22
-3.23477e-22
9.71562e-22
-2.32769e-22
9.78717e-22
-1.40422e-22
9.81099e-22
-4.70874e-23
9.78691e-22
4.65812e-23
9.71505e-22
1.39921e-22
9.5957e-22
2.32275e-22
9.42956e-22
3.22992e-22
9.21769e-22
4.11434e-22
8.96145e-22
4.96972e-22
8.66262e-22
5.78973e-22
8.32336e-22
6.568e-22
7.9462e-22
7.29808e-22
7.53394e-22
7.97347e-22
7.08982e-22
8.58749e-22
6.61742e-22
9.13334e-22
6.12072e-22
9.60398e-22
5.60414e-22
9.9921e-22
5.07261e-22
1.029e-21
4.53151e-22
1.04896e-21
3.9866e-22
1.05827e-21
3.44445e-22
1.05596e-21
2.91235e-22
1.041e-21
2.39776e-22
1.01234e-21
1.90883e-22
9.68745e-22
1.45532e-22
9.08791e-22
1.04667e-22
8.3101e-22
6.90669e-23
7.33805e-22
3.99427e-23
6.15083e-22
1.82782e-23
4.72842e-22
4.79502e-24
3.05075e-22
1.13996e-22
3.6622e-24
-1.17483e-22
1.41366e-23
-3.1532e-22
3.09729e-23
-4.89409e-22
5.35382e-23
-6.37239e-22
8.11001e-23
-7.60936e-22
1.12923e-22
-8.62492e-22
1.48233e-22
-9.43799e-22
1.86287e-22
-1.00654e-21
2.26392e-22
-1.05227e-21
2.67899e-22
-1.0824e-21
3.102e-22
-1.09822e-21
3.52719e-22
-1.10081e-21
3.94962e-22
-1.09129e-21
4.3647e-22
-1.07065e-21
4.76812e-22
-1.03975e-21
5.15597e-22
-9.9943e-22
5.52482e-22
-9.50508e-22
5.87153e-22
-8.93753e-22
6.19332e-22
-8.29892e-22
6.48766e-22
-7.59641e-22
6.75236e-22
-6.83692e-22
6.98539e-22
-6.02725e-22
7.18517e-22
-5.17415e-22
7.35031e-22
-4.28426e-22
7.47975e-22
-3.36418e-22
7.57264e-22
-2.42054e-22
7.62848e-22
-1.45996e-22
7.64691e-22
-4.89207e-23
7.62789e-22
4.8494e-23
7.57158e-22
1.45565e-22
7.47824e-22
2.41623e-22
7.34838e-22
3.35994e-22
7.18278e-22
4.28012e-22
6.98254e-22
5.17015e-22
6.74908e-22
6.0234e-22
6.48406e-22
6.83325e-22
6.18942e-22
7.59297e-22
5.86739e-22
8.29576e-22
5.52047e-22
8.93468e-22
5.15148e-22
9.50261e-22
4.76355e-22
9.99221e-22
4.36013e-22
1.03958e-21
3.9451e-22
1.07054e-21
3.52277e-22
1.09123e-21
3.09782e-22
1.1008e-21
2.6751e-22
1.09827e-21
2.26032e-22
1.08252e-21
1.85953e-22
1.05245e-21
1.47968e-22
1.00676e-21
1.12728e-22
9.44086e-22
8.09032e-23
8.62861e-22
5.34148e-23
7.61294e-22
3.09436e-23
6.37571e-22
1.4108e-23
4.8978e-22
3.61179e-24
3.15514e-22
1.17608e-22
2.60249e-24
-1.20078e-22
1.00613e-23
-3.228e-22
2.20716e-23
-5.01436e-22
3.81734e-23
-6.53355e-22
5.78529e-23
-7.80628e-22
8.05791e-23
-8.8523e-22
1.05807e-22
-9.6904e-22
1.33025e-22
-1.03377e-21
1.61737e-22
-1.08099e-21
1.91447e-22
-1.11212e-21
2.21743e-22
-1.12852e-21
2.52192e-22
-1.13127e-21
2.82464e-22
-1.12157e-21
3.12213e-22
-1.10041e-21
3.41125e-22
-1.06866e-21
3.68919e-22
-1.02723e-21
3.95353e-22
-9.76944e-22
4.20197e-22
-9.18598e-22
4.43255e-22
-8.5295e-22
4.64342e-22
-7.80727e-22
4.83304e-22
-7.02652e-22
5e-22
-6.19418e-22
5.14313e-22
-5.31725e-22
5.26141e-22
-4.40247e-22
5.35407e-22
-3.45677e-22
5.4205e-22
-2.48689e-22
5.46039e-22
-1.49978e-22
5.47352e-22
-5.02256e-23
5.45979e-22
4.98735e-23
5.41924e-22
1.49629e-22
5.35212e-22
2.48344e-22
5.25885e-22
3.45331e-22
5.14002e-22
4.39907e-22
4.9964e-22
5.31389e-22
4.82895e-22
6.19099e-22
4.63889e-22
7.02346e-22
4.42759e-22
7.80443e-22
4.19668e-22
8.52684e-22
3.94796e-22
9.18358e-22
3.68345e-22
9.76731e-22
3.40539e-22
1.02705e-21
3.11623e-22
1.06852e-21
2.81878e-22
1.1003e-21
2.51624e-22
1.12151e-21
2.212e-22
1.13125e-21
1.9093e-22
1.12856e-21
1.6127e-22
1.1122e-21
1.32629e-22
1.08112e-21
1.05442e-22
1.03398e-21
8.0247e-23
9.69278e-22
5.76527e-23
8.85469e-22
3.80756e-23
7.80905e-22
2.19609e-23
6.53683e-22
9.96951e-24
5.01689e-22
2.55586e-24
3.22989e-22
1.20163e-22
1.56107e-24
-1.21655e-22
6.06099e-24
-3.2729e-22
1.32961e-23
-5.08667e-22
2.29821e-23
-6.63036e-22
3.4822e-23
-7.92463e-22
4.84896e-23
-8.98893e-22
6.3666e-23
-9.84212e-22
8.00426e-23
-1.05014e-21
9.73482e-23
-1.09829e-21
1.15295e-22
-1.13006e-21
1.3346e-22
-1.14669e-21
1.51768e-22
-1.14957e-21
1.70042e-22
-1.13984e-21
1.87974e-22
-1.11834e-21
2.05359e-22
-1.08605e-21
2.22076e-22
-1.04394e-21
2.37976e-22
-9.92841e-22
2.52925e-22
-9.33542e-22
2.66796e-22
-8.66816e-22
2.79483e-22
-7.93409e-22
2.90886e-22
-7.14049e-22
3.00926e-22
-6.2945e-22
3.09525e-22
-5.40314e-22
3.1663e-22
-4.47342e-22
3.22194e-22
-3.5123e-22
3.26183e-22
-2.52669e-22
3.28568e-22
-1.52357e-22
3.29338e-22
-5.09904e-23
3.28489e-22
5.07258e-23
3.26031e-22
1.52092e-22
3.21975e-22
2.52405e-22
3.16343e-22
3.50968e-22
3.0917e-22
4.47086e-22
3.00504e-22
5.40061e-22
2.90408e-22
6.29203e-22
2.78951e-22
7.1381e-22
2.66219e-22
7.93183e-22
2.52308e-22
8.66604e-22
2.37328e-22
9.33347e-22
2.21404e-22
9.92664e-22
2.04673e-22
1.04379e-21
1.87283e-22
1.08592e-21
1.69357e-22
1.11824e-21
1.51098e-22
1.13978e-21
1.32815e-22
1.14954e-21
1.147e-22
1.14669e-21
9.68037e-23
1.13011e-21
7.95345e-23
1.09839e-21
6.32479e-23
1.05025e-21
4.8207e-23
9.84342e-22
3.45482e-23
8.99123e-22
2.27147e-23
7.92693e-22
1.3194e-23
6.632e-22
6.09995e-24
5.08845e-22
1.60398e-24
3.27404e-22
1.21766e-22
5.50346e-25
-1.22185e-22
2.0937e-24
-3.28818e-22
4.57977e-24
-5.11131e-22
7.89218e-24
-6.66327e-22
1.192e-23
-7.9647e-22
1.65608e-23
-9.03512e-22
2.1699e-23
-9.89329e-22
2.72161e-23
-1.05564e-21
3.29854e-23
-1.10404e-21
3.89675e-23
-1.13603e-21
4.51855e-23
-1.15289e-21
5.16367e-23
-1.15601e-21
5.78157e-23
-1.14601e-21
6.37122e-23
-1.12422e-21
6.94993e-23
-1.09182e-21
7.51006e-23
-1.04953e-21
8.04302e-23
-9.98159e-22
8.54389e-23
-9.3854e-22
9.0085e-23
-8.71451e-22
9.43327e-23
-7.97645e-22
9.81457e-23
-7.1785e-22
1.01498e-22
-6.3279e-22
1.04369e-22
-5.43171e-22
1.06738e-22
-4.49698e-22
1.08584e-22
-3.53064e-22
1.09898e-22
-2.53974e-22
1.10671e-22
-1.53124e-22
1.10902e-22
-5.1218e-23
1.10587e-22
5.10424e-23
1.0973e-22
1.5295e-22
1.08336e-22
2.538e-22
1.06414e-22
3.52891e-22
1.03977e-22
4.49524e-22
1.01039e-22
5.43001e-22
9.76243e-23
6.32619e-22
9.37505e-23
7.17685e-22
8.94539e-23
7.97481e-22
8.47627e-23
8.71295e-22
7.97185e-23
9.38392e-22
7.43618e-23
9.98021e-22
6.87458e-23
1.0494e-21
6.29512e-23
1.09171e-21
5.70626e-23
1.12413e-21
5.09013e-23
1.14593e-21
4.44816e-23
1.15596e-21
3.83012e-23
1.15286e-21
3.23712e-23
1.13602e-21
2.6702e-23
1.10405e-21
2.12471e-23
1.05571e-21
1.6107e-23
9.89439e-22
1.16296e-23
9.03577e-22
7.80259e-24
7.96532e-22
4.45008e-24
6.66505e-22
1.91268e-24
5.11275e-22
4.1742e-25
3.28929e-22
1.22181e-22
-4.66465e-25
-1.21723e-22
-1.8481e-24
-3.27386e-22
-4.1086e-24
-5.08828e-22
-7.16884e-24
-6.63225e-22
-1.09307e-23
-7.92667e-22
-1.53029e-23
-8.991e-22
-2.01838e-23
-9.8441e-22
-2.54537e-23
-1.05034e-21
-3.09959e-23
-1.09847e-21
-3.67676e-23
-1.13023e-21
-4.27897e-23
-1.14684e-21
-4.90614e-23
-1.14971e-21
-5.50784e-23
-1.13996e-21
-6.08302e-23
-1.11844e-21
-6.64923e-23
-1.08613e-21
-7.19836e-23
-1.04401e-21
-7.72224e-23
-9.929e-22
-8.21555e-23
-9.33587e-22
-8.6744e-23
-8.66845e-22
-9.09503e-23
-7.93422e-22
-9.47369e-23
-7.14047e-22
-9.80758e-23
-6.29434e-22
-1.00945e-22
-5.40285e-22
-1.03327e-22
-4.473e-22
-1.05205e-22
-3.51174e-22
-1.06567e-22
-2.52603e-22
-1.07406e-22
-1.5228e-22
-1.07715e-22
-5.09052e-23
-1.07493e-22
5.08217e-23
-1.06741e-22
1.52198e-22
-1.05464e-22
2.52522e-22
-1.03667e-22
3.51093e-22
-1.0136e-22
4.47214e-22
-9.85594e-23
5.40197e-22
-9.52855e-23
6.29341e-22
-9.15601e-23
7.13954e-22
-8.7411e-23
7.93325e-22
-8.28688e-23
8.66746e-22
-7.79714e-23
9.33486e-22
-7.27619e-23
9.92801e-22
-6.72875e-23
1.04392e-21
-6.16319e-23
1.08604e-21
-5.58742e-23
1.11835e-21
-4.9838e-23
1.13988e-21
-4.35343e-23
1.14963e-21
-3.74614e-23
1.14677e-21
-3.16273e-23
1.13018e-21
-2.60587e-23
1.09845e-21
-2.06947e-23
1.05029e-21
-1.56194e-23
9.8436e-22
-1.1228e-23
8.99149e-22
-7.53868e-24
7.92751e-22
-4.25252e-24
6.63193e-22
-1.7912e-24
5.08829e-22
-3.86929e-25
3.2742e-22
1.21791e-22
-1.51727e-24
-1.20172e-22
-5.82808e-24
-3.23018e-22
-1.28306e-23
-5.01762e-22
-2.22672e-23
-6.53727e-22
-3.3848e-23
-7.81026e-22
-4.72644e-23
-8.85625e-22
-6.21962e-23
-9.69422e-22
-7.8337e-23
-1.03414e-21
-9.54221e-23
-1.08133e-21
-1.13163e-22
-1.11244e-21
-1.31137e-22
-1.12882e-21
-1.49276e-22
-1.13153e-21
-1.67397e-22
-1.1218e-21
-1.85192e-22
-1.10061e-21
-2.02455e-22
-1.06884e-21
-2.19066e-22
-1.02737e-21
-2.34879e-22
-9.77058e-22
-2.49754e-22
-9.18685e-22
-2.63568e-22
-8.53006e-22
-2.76208e-22
-7.80757e-22
-2.87585e-22
-7.02648e-22
-2.97611e-22
-6.19386e-22
-3.06219e-22
-5.3166e-22
-3.13342e-22
-4.40161e-22
-3.18938e-22
-3.45566e-22
-3.22969e-22
-2.48562e-22
-3.25416e-22
-1.49826e-22
-3.26262e-22
-5.00545e-23
-3.25506e-22
5.00674e-23
-3.23143e-22
1.49835e-22
-3.19195e-22
2.48569e-22
-3.13677e-22
3.45571e-22
-3.06636e-22
4.40165e-22
-2.98103e-22
5.31657e-22
-2.8815e-22
6.19377e-22
-2.7683e-22
7.02624e-22
-2.64244e-22
7.80725e-22
-2.50476e-22
8.52963e-22
-2.35642e-22
9.18634e-22
-2.19856e-22
9.76996e-22
-2.03266e-22
1.0273e-21
-1.86007e-22
1.06876e-21
-1.6821e-22
1.10053e-21
-1.50066e-22
1.12171e-21
-1.31896e-22
1.13143e-21
-1.13888e-22
1.12873e-21
-9.60961e-23
1.11233e-21
-7.88927e-23
1.08121e-21
-6.26888e-23
1.03406e-21
-4.77959e-23
9.69379e-22
-3.41978e-23
8.85489e-22
-2.23387e-23
7.80882e-22
-1.29798e-23
6.53734e-22
-6.07875e-24
5.01792e-22
-1.66394e-24
3.22995e-22
1.20122e-22
-2.50814e-24
-1.17654e-22
-9.81263e-24
-3.15616e-22
-2.16193e-23
-4.89866e-22
-3.74954e-23
-6.37765e-22
-5.69327e-23
-7.61505e-22
-7.94188e-23
-8.6306e-22
-1.04425e-22
-9.4434e-22
-1.31434e-22
-1.00706e-21
-1.59939e-22
-1.05276e-21
-1.89465e-22
-1.08285e-21
-2.19591e-22
-1.09863e-21
-2.49882e-22
-1.10118e-21
-2.80008e-22
-1.09163e-21
-3.09634e-22
-1.07094e-21
-3.38429e-22
-1.04e-21
-3.6613e-22
-9.99632e-22
-3.92473e-22
-9.50674e-22
-4.17255e-22
-8.9387e-22
-4.40253e-22
-8.29973e-22
-4.61309e-22
-7.59673e-22
-4.8024e-22
-6.83688e-22
-4.96927e-22
-6.02678e-22
-5.11231e-22
-5.17333e-22
-5.23079e-22
-4.28299e-22
-5.3237e-22
-3.36259e-22
-5.39068e-22
-2.41856e-22
-5.43106e-22
-1.45776e-22
-5.4449e-22
-4.86694e-23
-5.43186e-22
4.87681e-23
-5.39234e-22
1.45878e-22
-5.32623e-22
2.41957e-22
-5.23417e-22
3.36355e-22
-5.11643e-22
4.28387e-22
-4.97408e-22
5.17408e-22
-4.80783e-22
6.02742e-22
-4.61917e-22
6.83739e-22
-4.40916e-22
7.59709e-22
-4.17966e-22
8.29987e-22
-3.93221e-22
8.93865e-22
-3.66907e-22
9.50648e-22
-3.39225e-22
9.99587e-22
-3.10439e-22
1.03993e-21
-2.80808e-22
1.07085e-21
-2.5067e-22
1.09152e-21
-2.20351e-22
1.10106e-21
-1.90173e-22
1.09848e-21
-1.60586e-22
1.0827e-21
-1.32068e-22
1.05263e-21
-1.0497e-22
1.00686e-21
-7.97222e-23
9.44102e-22
-5.7254e-23
8.62954e-22
-3.79515e-23
7.61428e-22
-2.18108e-23
6.37538e-22
-9.73785e-24
4.89673e-22
-2.4206e-24
3.15542e-22
1.17696e-22
-3.61278e-24
-1.13991e-22
-1.39049e-23
-3.05213e-22
-3.05565e-23
-4.73102e-22
-5.29139e-23
-6.15298e-22
-8.02769e-23
-7.34039e-22
-1.11884e-22
-8.31355e-22
-1.46993e-22
-9.0914e-22
-1.84866e-22
-9.69102e-22
-2.24803e-22
-1.01274e-21
-2.66145e-22
-1.04143e-21
-3.08299e-22
-1.05641e-21
-3.50676e-22
-1.05874e-21
-3.92798e-22
-1.04945e-21
-4.3419e-22
-1.02949e-21
-4.74433e-22
-9.99703e-22
-5.13128e-22
-9.60885e-22
-5.49939e-22
-9.1382e-22
-5.84545e-22
-8.59219e-22
-6.16676e-22
-7.97807e-22
-6.4607e-22
-7.30243e-22
-6.72514e-22
-6.57217e-22
-6.95809e-22
-5.79355e-22
-7.15792e-22
-4.97333e-22
-7.32318e-22
-4.11753e-22
-7.45282e-22
-3.23286e-22
-7.54602e-22
-2.32522e-22
-7.60231e-22
-1.40143e-22
-7.62141e-22
-4.67519e-23
-7.60316e-22
4.69405e-23
-7.54766e-22
1.40328e-22
-7.45516e-22
2.32699e-22
-7.32627e-22
3.23461e-22
-7.1617e-22
4.11917e-22
-6.96262e-22
4.97491e-22
-6.73029e-22
5.79491e-22
-6.46649e-22
6.57341e-22
-6.173e-22
7.30333e-22
-5.85219e-22
7.9788e-22
-5.50645e-22
8.59255e-22
-5.13868e-22
9.13834e-22
-4.75187e-22
9.60857e-22
-4.3496e-22
9.99653e-22
-3.9356e-22
1.0294e-21
-3.5143e-22
1.04933e-21
-3.09019e-22
1.05858e-21
-2.66848e-22
1.05625e-21
-2.25458e-22
1.04123e-21
-1.85405e-22
1.01249e-21
-1.47462e-22
9.68884e-22
-1.12466e-22
9.08975e-22
-8.0663e-23
8.31031e-22
-5.29356e-23
7.3367e-22
-3.07203e-23
6.15162e-22
-1.4238e-23
4.73019e-22
-3.81993e-24
3.05068e-22
1.1387e-22
-4.63737e-24
-1.09325e-22
-1.8049e-23
-2.9166e-22
-3.96497e-23
-4.51365e-22
-6.86231e-23
-5.86199e-22
-1.04e-22
-6.98544e-22
-1.44791e-22
-7.90452e-22
-1.90041e-22
-8.63786e-22
-2.38785e-22
-9.20261e-22
-2.90136e-22
-9.61304e-22
-3.43244e-22
-9.8824e-22
-3.97364e-22
-1.00222e-21
-4.51747e-22
-1.00428e-21
-5.05771e-22
-9.95356e-22
-5.58827e-22
-9.76371e-22
-6.10414e-22
-9.48061e-22
-6.59993e-22
-9.11254e-22
-7.07178e-22
-8.66591e-22
-7.51505e-22
-8.14848e-22
-7.9269e-22
-7.56587e-22
-8.30332e-22
-6.92565e-22
-8.64233e-22
-6.23292e-22
-8.9405e-22
-5.49511e-22
-9.1967e-22
-4.71699e-22
-9.40811e-22
-3.90594e-22
-9.5744e-22
-3.0665e-22
-9.69341e-22
-2.20608e-22
-9.76566e-22
-1.32919e-22
-9.78955e-22
-4.43566e-23
-9.76631e-22
4.46081e-23
-9.69471e-22
1.33169e-22
-9.57647e-22
2.20861e-22
-9.41082e-22
3.06893e-22
-9.20017e-22
3.90835e-22
-8.94453e-22
4.7192e-22
-8.64706e-22
5.4972e-22
-8.30848e-22
6.23465e-22
-7.93267e-22
6.9272e-22
-7.52112e-22
7.56699e-22
-7.07833e-22
8.14932e-22
-6.60661e-22
8.66622e-22
-6.11118e-22
9.11259e-22
-5.59524e-22
9.48008e-22
-5.06481e-22
9.76288e-22
-4.52431e-22
9.95223e-22
-3.98049e-22
1.00413e-21
-3.4387e-22
1.00199e-21
-2.90722e-22
9.88006e-22
-2.3937e-22
9.61075e-22
-1.90579e-22
9.19948e-22
-1.45048e-22
8.63372e-22
-1.0427e-22
7.90182e-22
-6.91826e-23
6.98375e-22
-3.98971e-23
5.85797e-22
-1.79267e-23
4.50959e-22
-4.51307e-24
2.915e-22
1.0935e-22
-5.79091e-24
-1.03474e-22
-2.23407e-23
-2.74959e-22
-4.9033e-23
-4.24529e-22
-8.46968e-23
-5.50398e-22
-1.2819e-22
-6.5492e-22
-1.78267e-22
-7.40253e-22
-2.3369e-22
-8.08246e-22
-2.93321e-22
-8.60523e-22
-3.56043e-22
-8.98478e-22
-4.20865e-22
-9.23327e-22
-4.86833e-22
-9.36158e-22
-5.53118e-22
-9.37921e-22
-6.18905e-22
-9.29491e-22
-6.83529e-22
-9.11685e-22
-7.46292e-22
-8.85231e-22
-8.0666e-22
-8.50838e-22
-8.64044e-22
-8.09151e-22
-9.18026e-22
-7.60831e-22
-9.68099e-22
-7.06468e-22
-1.01395e-21
-6.46691e-22
-1.05515e-21
-5.8205e-22
-1.09149e-21
-5.13163e-22
-1.12261e-21
-4.40549e-22
-1.14838e-21
-3.64823e-22
-1.16855e-21
-2.86466e-22
-1.18306e-21
-2.06099e-22
-1.19177e-21
-1.24191e-22
-1.19473e-21
-4.1414e-23
-1.19183e-21
4.17196e-23
-1.18318e-21
1.24494e-22
-1.16872e-21
2.06406e-22
-1.14861e-21
2.86761e-22
-1.1229e-21
3.65118e-22
-1.09183e-21
4.40813e-22
-1.05555e-21
5.13423e-22
-1.01439e-21
5.82262e-22
-9.6859e-22
6.46894e-22
-9.18551e-22
7.06605e-22
-8.64605e-22
7.60952e-22
-8.07243e-22
8.09198e-22
-7.46893e-22
8.50865e-22
-6.84138e-22
8.85183e-22
-6.19524e-22
9.11622e-22
-5.53728e-22
9.2935e-22
-4.87419e-22
9.37751e-22
-4.21436e-22
9.35934e-22
-3.56603e-22
9.23093e-22
-2.93762e-22
8.98115e-22
-2.34075e-22
8.60205e-22
-1.78816e-22
8.07988e-22
-1.28654e-22
7.39843e-22
-8.46629e-23
6.54349e-22
-4.91676e-23
5.50131e-22
-2.27732e-23
4.24382e-22
-6.10751e-24
2.74775e-22
1.03236e-22
-6.96527e-24
-9.64695e-23
-2.67977e-23
-2.54965e-22
-5.87105e-23
-3.92467e-22
-1.01272e-22
-5.07692e-22
-1.53023e-22
-6.03032e-22
-2.12447e-22
-6.80694e-22
-2.78082e-22
-7.42483e-22
-3.48578e-22
-7.89903e-22
-4.22618e-22
-8.24324e-22
-4.99049e-22
-8.46786e-22
-5.76759e-22
-8.58349e-22
-6.54796e-22
-8.59789e-22
-7.32192e-22
-8.52012e-22
-8.08204e-22
-8.35593e-22
-8.81999e-22
-8.11371e-22
-9.52992e-22
-7.79781e-22
-1.02044e-21
-7.41656e-22
-1.08391e-21
-6.97306e-22
-1.14276e-21
-6.47588e-22
-1.19669e-21
-5.92722e-22
-1.2451e-21
-5.33607e-22
-1.28786e-21
-4.70381e-22
-1.32441e-21
-4.03979e-22
-1.35475e-21
-3.34468e-22
-1.3784e-21
-2.62813e-22
-1.39549e-21
-1.88998e-22
-1.40566e-21
-1.14026e-22
-1.40917e-21
-3.79021e-23
-1.40569e-21
3.82358e-23
-1.39557e-21
1.14366e-22
-1.37851e-21
1.89318e-22
-1.35492e-21
2.63148e-22
-1.32461e-21
3.34761e-22
-1.28813e-21
4.0429e-22
-1.24539e-21
4.70625e-22
-1.19705e-21
5.33869e-22
-1.14311e-21
5.92894e-22
-1.08434e-21
6.47781e-22
-1.02085e-21
6.97397e-22
-9.53477e-22
7.41766e-22
-8.82451e-22
7.79777e-22
-8.08718e-22
8.11391e-22
-7.32652e-22
8.35489e-22
-6.553e-22
8.51931e-22
-5.77221e-22
8.59601e-22
-4.99537e-22
8.58165e-22
-4.23009e-22
8.46476e-22
-3.49055e-22
8.2409e-22
-2.78531e-22
7.89548e-22
-2.12662e-22
7.41997e-22
-1.53184e-22
6.80305e-22
-1.01828e-22
6.02803e-22
-5.90408e-23
5.07256e-22
-2.66504e-23
3.91932e-22
-6.69654e-24
2.54686e-22
9.65349e-23
-8.12067e-24
-8.82847e-23
-3.14816e-23
-2.3145e-22
-6.88019e-23
-3.54987e-22
-1.18461e-22
-4.57878e-22
-1.78589e-22
-5.42752e-22
-2.47459e-22
-6.11672e-22
-3.23353e-22
-6.66443e-22
-4.04644e-22
-7.0847e-22
-4.89936e-22
-7.38899e-22
-5.77822e-22
-7.58771e-22
-6.67144e-22
-7.68909e-22
-7.56706e-22
-7.70115e-22
-8.4559e-22
-7.63028e-22
-9.32751e-22
-7.48338e-22
-1.01746e-21
-7.26579e-22
-1.0988e-21
-6.98363e-22
-1.17624e-21
-6.64155e-22
-1.24895e-21
-6.24542e-22
-1.31655e-21