/*--------------------------------*- C++ -*----------------------------------*\
| =========                 |                                                 |
| \\      /  F ield         | OpenFOAM: The Open Source CFD Toolbox           |
|  \\    /   O peration     | Version:  5.0                                   |
|   \\  /    A nd           | Web:      www.OpenFOAM.org                      |
|    \\/     M anipulation  |                                                 |
\*---------------------------------------------------------------------------*/
FoamFile
{
    version     2.0;
    format      ascii;
    class       volScalarField;
    location    "215";
    object      p;
}
// * * * * * * * * * * * * * * * * * * * * * * * * * * * * * * * * * * * * * //

dimensions      [0 2 -2 0 0 0 0];

internalField   nonuniform List<scalar> 
7000
(
9.76719e-07
-0.000397672
-0.00057893
-0.000584088
-0.000580828
-0.000595436
-0.000599451
-0.000585615
-0.000561857
-0.00053499
-0.000509378
-0.000482726
-0.000438374
-0.000387481
3.67899e-05
-0.000385309
-0.000580852
-0.00059083
-0.000590802
-0.000608086
-0.000614727
-0.000602949
-0.000579844
-0.000550543
-0.000516418
-0.00047143
-0.000407185
-0.000344889
3.88038e-05
-0.000389048
-0.000585103
-0.000594397
-0.000597001
-0.000617651
-0.000626915
-0.000616639
-0.000592593
-0.000557404
-0.000509502
-0.000447116
-0.000375346
-0.000317331
3.8158e-05
-0.000387651
-0.000582283
-0.000592909
-0.000598978
-0.000623008
-0.00063486
-0.000626625
-0.000603153
-0.000565777
-0.000512524
-0.000443954
-0.000369477
-0.000315124
3.62633e-05
-0.000387204
-0.000580199
-0.000591932
-0.000600477
-0.000626736
-0.000640556
-0.000634366
-0.000612378
-0.000574995
-0.000519616
-0.000447738
-0.000372139
-0.000320604
3.37384e-05
-0.000386863
-0.000577836
-0.000590462
-0.000600935
-0.000628918
-0.000644426
-0.000640115
-0.000619876
-0.000583372
-0.000527391
-0.000453937
-0.000378005
-0.000327926
3.16538e-05
-0.00038611
-0.000575547
-0.000589343
-0.000601488
-0.000630773
-0.000647526
-0.000644714
-0.000626072
-0.000590645
-0.000534724
-0.000460561
-0.000384497
-0.000335304
3.00638e-05
-0.000385081
-0.000573521
-0.00058863
-0.000602127
-0.000632258
-0.000649949
-0.000648387
-0.000631048
-0.000596534
-0.000540836
-0.000466395
-0.000390403
-0.000341969
2.85457e-05
-0.000384077
-0.000571846
-0.000588202
-0.000602688
-0.000633361
-0.000651795
-0.000651208
-0.000634839
-0.000601001
-0.000545489
-0.000470916
-0.000395081
-0.000347362
2.68639e-05
-0.000383316
-0.00057066
-0.000588034
-0.000603057
-0.000634042
-0.000653018
-0.000653129
-0.000637411
-0.000603999
-0.000548554
-0.000473826
-0.000398082
-0.000350903
2.52035e-05
-0.000382895
-0.000570166
-0.000588216
-0.000603261
-0.000634299
-0.000653616
-0.000654149
-0.00063878
-0.000605523
-0.000549944
-0.000474947
-0.000399152
-0.000352177
2.41998e-05
-0.000382765
-0.000570537
-0.000588845
-0.000603412
-0.000634257
-0.000653692
-0.000654333
-0.000638959
-0.000605529
-0.000549565
-0.000474138
-0.000398135
-0.000351115
2.4678e-05
-0.000382627
-0.000571823
-0.000589931
-0.000603654
-0.000634119
-0.000653365
-0.000653721
-0.000637945
-0.000603973
-0.000547338
-0.000471312
-0.000394971
-0.00034785
2.72961e-05
-0.000382432
-0.000573785
-0.000591342
-0.000604036
-0.000633955
-0.000652693
-0.000652368
-0.000635766
-0.000600849
-0.000543248
-0.000466478
-0.00038974
-0.000342493
3.19009e-05
-0.000382122
-0.000576046
-0.000592998
-0.000604551
-0.000633685
-0.000651622
-0.000650274
-0.000632429
-0.000596163
-0.000537338
-0.000459749
-0.000382613
-0.000335184
3.77262e-05
-0.000381354
-0.000578417
-0.000594991
-0.000605237
-0.000633244
-0.000650051
-0.000647328
-0.000627835
-0.000589887
-0.000529695
-0.00045132
-0.000373791
-0.00032605
4.42035e-05
-0.000379926
-0.000580646
-0.000597204
-0.000606057
-0.000632675
-0.000648016
-0.000643496
-0.000621943
-0.00058206
-0.000520498
-0.00044147
-0.000363546
-0.000315191
5.10964e-05
-0.00037768
-0.000582474
-0.000599355
-0.000606694
-0.0006317
-0.000645364
-0.00063874
-0.000614873
-0.000572978
-0.000510175
-0.000430688
-0.000352344
-0.000303071
5.84243e-05
-0.0003745
-0.000583618
-0.000601121
-0.000606806
-0.000629999
-0.000641867
-0.000633045
-0.000606885
-0.000563174
-0.000499424
-0.000419714
-0.000340917
-0.000290492
6.63224e-05
-0.000370277
-0.000583771
-0.000602163
-0.000606211
-0.000627547
-0.000637694
-0.000626841
-0.000598644
-0.000553483
-0.000489184
-0.000409475
-0.000330222
-0.000278598
7.46555e-05
-0.000365082
-0.000582732
-0.000602214
-0.000604863
-0.0006245
-0.000633222
-0.000620797
-0.00059106
-0.000544941
-0.000480467
-0.00040091
-0.000321235
-0.000268709
8.28549e-05
-0.000359456
-0.000580699
-0.000601332
-0.000603047
-0.000621439
-0.000629127
-0.000615656
-0.000584972
-0.000538388
-0.000474013
-0.000394663
-0.000314647
-0.00026166
8.98678e-05
-0.0003544
-0.000578164
-0.000599743
-0.000601187
-0.000619036
-0.000626151
-0.000612108
-0.000581005
-0.000534315
-0.000470126
-0.000390913
-0.000310624
-0.000257551
9.44319e-05
-0.000350963
-0.000575837
-0.000597912
-0.000599676
-0.000617718
-0.000624757
-0.000610576
-0.000579434
-0.000532811
-0.000468721
-0.000389466
-0.00030891
-0.00025586
9.57483e-05
-0.000349664
-0.000574255
-0.000596372
-0.000598859
-0.000617675
-0.000625117
-0.000611182
-0.00058025
-0.000533734
-0.000469559
-0.00039002
-0.000309156
-0.00025599
9.35372e-05
-0.00035057
-0.000573405
-0.000595141
-0.000598671
-0.000618731
-0.000627037
-0.000613743
-0.000583276
-0.000536929
-0.000472531
-0.000392508
-0.000311267
-0.000257809
8.821e-05
-0.000353307
-0.000572923
-0.000593902
-0.000598773
-0.000620507
-0.000630131
-0.000617931
-0.000588309
-0.000542328
-0.000477691
-0.000397066
-0.000315423
-0.000261674
8.09842e-05
-0.000357094
-0.000572424
-0.000592395
-0.000598868
-0.000622625
-0.000633995
-0.000623422
-0.000595159
-0.000549881
-0.000485112
-0.000403832
-0.000321816
-0.000267963
7.29457e-05
-0.000361258
-0.00057171
-0.000590522
-0.000598726
-0.00062472
-0.000638226
-0.000629831
-0.00060349
-0.000559358
-0.000494693
-0.000412764
-0.000330346
-0.000276704
6.42362e-05
-0.000365477
-0.000570704
-0.000588356
-0.000598316
-0.00062665
-0.000642534
-0.000636699
-0.000612769
-0.000570292
-0.000506097
-0.000423611
-0.000340674
-0.000287331
5.5101e-05
-0.000369323
-0.000569226
-0.000585986
-0.000597832
-0.00062848
-0.000646695
-0.00064354
-0.000622367
-0.000582052
-0.000518794
-0.000435979
-0.000352378
-0.000299036
4.64972e-05
-0.000372068
-0.000567013
-0.000583536
-0.000597482
-0.00063023
-0.000650547
-0.000649983
-0.000631719
-0.000593938
-0.000532109
-0.000449332
-0.000365007
-0.000311272
4.02775e-05
-0.000372763
-0.000563794
-0.00058088
-0.000597052
-0.000631698
-0.000653885
-0.000655685
-0.000640247
-0.000605163
-0.000545179
-0.000462898
-0.000378052
-0.000323831
3.85888e-05
-0.000370621
-0.000559368
-0.000577707
-0.000596098
-0.000632403
-0.000656218
-0.000660105
-0.000647204
-0.000614734
-0.000556829
-0.000475519
-0.000390682
-0.000336429
4.25389e-05
-0.000365532
-0.00055395
-0.000574029
-0.000594344
-0.000631927
-0.000657007
-0.00066256
-0.000651736
-0.000621535
-0.000565662
-0.00048567
-0.000401523
-0.000348044
5.0346e-05
-0.000358711
-0.000548256
-0.000570162
-0.000591838
-0.000630237
-0.000656142
-0.000662821
-0.000653402
-0.000624804
-0.000570533
-0.000491861
-0.000408836
-0.000356738
5.61207e-05
-0.000353738
-0.000543982
-0.000566788
-0.00058907
-0.000627856
-0.00065417
-0.000661368
-0.00065249
-0.000624495
-0.000570984
-0.000493147
-0.000411099
-0.000360175
5.47276e-05
-0.000354568
-0.000543871
-0.000565782
-0.000587527
-0.00062603
-0.000652146
-0.000659098
-0.000649807
-0.000621247
-0.000567299
-0.000489378
-0.000407635
-0.000356829
4.83261e-05
-0.000360127
-0.000548068
-0.000568026
-0.000588232
-0.000625743
-0.000651027
-0.000656977
-0.000646333
-0.000616152
-0.000560571
-0.000481552
-0.000399364
-0.000347621
4.19331e-05
-0.000367132
-0.000555111
-0.00057314
-0.000591201
-0.00062721
-0.00065119
-0.000655583
-0.000642925
-0.000610322
-0.000552268
-0.000471439
-0.000388399
-0.000335524
3.83203e-05
-0.000373567
-0.00056346
-0.00058006
-0.000595797
-0.000630009
-0.000652334
-0.000654746
-0.000639646
-0.00060421
-0.000543392
-0.000460686
-0.00037697
-0.000323596
3.84566e-05
-0.000378029
-0.000571402
-0.000587291
-0.000600864
-0.000633231
-0.000653721
-0.000653852
-0.000636048
-0.00059775
-0.000534398
-0.000450307
-0.000366453
-0.000313378
4.28264e-05
-0.000379412
-0.000577407
-0.000593374
-0.000605085
-0.000635638
-0.000654219
-0.000651947
-0.000631384
-0.000590442
-0.000525172
-0.000440442
-0.000356902
-0.00030448
5.1072e-05
-0.000377304
-0.000580667
-0.000597412
-0.00060744
-0.000636109
-0.000652707
-0.000647978
-0.000624772
-0.000581615
-0.000515216
-0.000430623
-0.000347594
-0.000295489
6.16457e-05
-0.000372374
-0.00058139
-0.000599331
-0.000607622
-0.000634143
-0.000648608
-0.000641438
-0.000615802
-0.000570954
-0.000504182
-0.000420318
-0.000337809
-0.000285425
7.27429e-05
-0.000365957
-0.000580493
-0.00059969
-0.000606054
-0.000630155
-0.000642381
-0.000632839
-0.000605077
-0.000559072
-0.000492488
-0.00040966
-0.000327611
-0.000274559
8.31284e-05
-0.00035933
-0.000578981
-0.000599268
-0.000603572
-0.000625208
-0.000635311
-0.000623685
-0.000594202
-0.00054749
-0.000481408
-0.000399661
-0.000318015
-0.000264394
9.20475e-05
-0.000353461
-0.00057748
-0.000598691
-0.000601174
-0.000620619
-0.000628935
-0.00061573
-0.000585062
-0.000538012
-0.000472529
-0.000391704
-0.000310349
-0.000256542
9.87479e-05
-0.000349723
-0.000576118
-0.000597747
-0.00059926
-0.000617313
-0.000624361
-0.000610169
-0.000578911
-0.000531833
-0.000466879
-0.000386657
-0.000305359
-0.000251446
0.000104809
-0.000350253
-0.000575918
-0.000596442
-0.000597932
-0.000615651
-0.000622027
-0.000607346
-0.000575932
-0.000528995
-0.000464403
-0.000384451
-0.000302915
-0.000248325
-0.000395782
-0.000520843
-0.000593007
-0.000607808
-0.000613895
-0.000622288
-0.000621296
-0.000607711
-0.000585451
-0.000559216
-0.000533266
-0.000506413
-0.000463108
-0.00041453
-0.000384999
-0.000520322
-0.000593719
-0.000611518
-0.000623583
-0.000637568
-0.000640741
-0.000629185
-0.000606777
-0.000578074
-0.000545662
-0.000503307
-0.000441898
-0.000381835
-0.000387178
-0.000523948
-0.000594719
-0.000612196
-0.000626894
-0.000643614
-0.000649679
-0.000641031
-0.000620217
-0.000588327
-0.000543971
-0.000485849
-0.000418484
-0.000362035
-0.00038836
-0.000524298
-0.00059337
-0.00061137
-0.000628005
-0.000646711
-0.000654916
-0.000648945
-0.00063013
-0.000598047
-0.000550568
-0.00048792
-0.000417875
-0.000363606
-0.000389015
-0.000523604
-0.000591486
-0.000610259
-0.000628264
-0.000648227
-0.000658067
-0.000654315
-0.000638101
-0.000607977
-0.000560483
-0.000495483
-0.00042349
-0.000370751
-0.00038957
-0.000522402
-0.000589308
-0.000609003
-0.000628219
-0.00064911
-0.000660188
-0.000658345
-0.000644618
-0.000616717
-0.000570017
-0.00050392
-0.000430833
-0.000378853
-0.000389622
-0.000520702
-0.000587198
-0.000608099
-0.00062846
-0.000650083
-0.000662106
-0.000661837
-0.000650108
-0.000624074
-0.000578254
-0.000511669
-0.000437903
-0.000386381
-0.0003891
-0.000518672
-0.000585327
-0.000607554
-0.000628926
-0.000651137
-0.000663908
-0.000664861
-0.000654607
-0.000629923
-0.000584771
-0.000517973
-0.000443886
-0.000392789
-0.000388354
-0.00051668
-0.000583742
-0.000607208
-0.000629397
-0.00065207
-0.000665427
-0.00066728
-0.000658114
-0.000634372
-0.000589629
-0.000522672
-0.000448432
-0.000397764
-0.00038777
-0.000515042
-0.000582596
-0.000607024
-0.000629705
-0.000652686
-0.000666487
-0.000669006
-0.000660622
-0.0006375
-0.000592914
-0.000525704
-0.0004513
-0.000400976
-0.000387665
-0.000514039
-0.000582179
-0.000607151
-0.000629911
-0.000653018
-0.000667083
-0.000670017
-0.000662106
-0.000639283
-0.000594602
-0.000526992
-0.00045234
-0.000402169
-0.000387712
-0.000513872
-0.000582805
-0.00060771
-0.00063017
-0.000653207
-0.00066731
-0.000670354
-0.000662561
-0.000639675
-0.000594601
-0.000526418
-0.000451414
-0.00040125
-0.000387522
-0.000514823
-0.000584442
-0.000608722
-0.000630604
-0.000653357
-0.000667265
-0.000670093
-0.000662019
-0.000638653
-0.000592839
-0.000523894
-0.000448451
-0.000398281
-0.000387131
-0.000516652
-0.000586745
-0.000610173
-0.000631293
-0.000653565
-0.000667026
-0.000669305
-0.000660526
-0.000636213
-0.000589281
-0.000519404
-0.000443496
-0.000393315
-0.000386409
-0.000518631
-0.000589428
-0.000612017
-0.000632245
-0.000653868
-0.000666632
-0.00066799
-0.000658054
-0.000632313
-0.000583912
-0.000513004
-0.000436667
-0.000386437
-0.000385119
-0.00052035
-0.000592283
-0.000614173
-0.000633402
-0.000654213
-0.000666023
-0.000666073
-0.000654485
-0.00062685
-0.000576706
-0.000504782
-0.000428094
-0.000377728
-0.000383227
-0.000521546
-0.000595098
-0.000616511
-0.00063464
-0.000654432
-0.000665018
-0.000663391
-0.000649656
-0.00061972
-0.0005677
-0.000494912
-0.000417984
-0.000367247
-0.000380633
-0.000521952
-0.000597606
-0.00061874
-0.000635685
-0.000654253
-0.000663312
-0.00065968
-0.000643432
-0.000610981
-0.00055717
-0.0004838
-0.000406756
-0.000355406
-0.000377126
-0.000521309
-0.000599439
-0.000620485
-0.000636152
-0.000653345
-0.000660773
-0.000654874
-0.000635946
-0.000601048
-0.000545791
-0.00047221
-0.000395173
-0.000342991
-0.000372494
-0.000519356
-0.00060017
-0.000621371
-0.00063574
-0.000651496
-0.000657338
-0.00064919
-0.000627732
-0.000590769
-0.000534613
-0.000461192
-0.000384266
-0.000331188
-0.000366826
-0.000516064
-0.000599586
-0.000621196
-0.000634388
-0.000648818
-0.000653208
-0.000643132
-0.000619651
-0.000581276
-0.000524839
-0.000451875
-0.000375126
-0.0003214
-0.000360605
-0.000511839
-0.000597827
-0.000620026
-0.000632318
-0.000645721
-0.000649
-0.000637547
-0.000612748
-0.000573688
-0.000517448
-0.000445103
-0.000368533
-0.000314509
-0.000354793
-0.000507414
-0.000595299
-0.000618173
-0.000630025
-0.000642844
-0.000645532
-0.000633361
-0.00060796
-0.000568777
-0.000512944
-0.000441149
-0.000364653
-0.000310584
-0.000350711
-0.000503997
-0.000592767
-0.000616131
-0.000628143
-0.00064099
-0.00064362
-0.000631307
-0.000605847
-0.000566825
-0.000511324
-0.000439776
-0.000363152
-0.000309041
-0.00034925
-0.000502427
-0.000590929
-0.000614456
-0.000627178
-0.000640665
-0.000643731
-0.000631746
-0.000606585
-0.000567794
-0.000512355
-0.00044061
-0.000363625
-0.000309311
-0.00035043
-0.00050258
-0.000589794
-0.000613286
-0.000627133
-0.000641763
-0.000645747
-0.00063457
-0.000610062
-0.000571574
-0.000515944
-0.0004436
-0.000366041
-0.000311382
-0.000353682
-0.000503914
-0.000588951
-0.000612272
-0.000627559
-0.000643779
-0.00064915
-0.000639315
-0.000615917
-0.000577975
-0.000522111
-0.00044893
-0.000370648
-0.000315612
-0.000358103
-0.000505752
-0.000587973
-0.000611024
-0.00062795
-0.000646104
-0.000653243
-0.000645294
-0.000623591
-0.000586668
-0.000530786
-0.000456732
-0.000377646
-0.000322306
-0.000362882
-0.000507579
-0.00058662
-0.00060934
-0.000627928
-0.000648136
-0.000657343
-0.000651782
-0.000632408
-0.000597126
-0.000541661
-0.00046686
-0.000386899
-0.000331467
-0.000367691
-0.000509004
-0.000584768
-0.000607204
-0.000627349
-0.00064955
-0.000661034
-0.000658162
-0.000641621
-0.000608619
-0.000554149
-0.000478881
-0.000397991
-0.000342517
-0.000372129
-0.000509634
-0.00058228
-0.00060471
-0.000626404
-0.000650429
-0.000664122
-0.000663965
-0.000650545
-0.000620355
-0.000567524
-0.000492226
-0.000410429
-0.000354623
-0.000375406
-0.000508914
-0.000579006
-0.00060201
-0.000625386
-0.000650982
-0.000666558
-0.000669002
-0.000658744
-0.00063168
-0.000581057
-0.000506253
-0.000423695
-0.000367239
-0.000376442
-0.000506365
-0.000574883
-0.000599091
-0.000624284
-0.000651299
-0.000668433
-0.00067317
-0.000665856
-0.000641988
-0.00059396
-0.000520166
-0.000437163
-0.000380048
-0.000374377
-0.0005018
-0.000569871
-0.000595778
-0.000622863
-0.000651195
-0.000669572
-0.000676141
-0.0006714
-0.000650553
-0.000605233
-0.000532857
-0.000449903
-0.000392596
-0.000369207
-0.000495652
-0.000564315
-0.000592143
-0.00062094
-0.000650363
-0.00066968
-0.000677612
-0.000674917
-0.000656571
-0.000613695
-0.000542923
-0.000460575
-0.000403795
-0.000362525
-0.000489343
-0.000559201
-0.000588724
-0.000618776
-0.000648999
-0.000668975
-0.000677738
-0.000676294
-0.000659592
-0.00061849
-0.000549124
-0.000467645
-0.000411943
-0.000358287
-0.000485606
-0.000556091
-0.000586379
-0.000617038
-0.000647707
-0.000668027
-0.00067708
-0.000675962
-0.00065975
-0.000619363
-0.000550763
-0.000469934
-0.000415153
-0.000360107
-0.000487064
-0.000556843
-0.000586357
-0.000616533
-0.000646967
-0.000667179
-0.000676062
-0.000674519
-0.000657567
-0.000616494
-0.000547638
-0.000466984
-0.000412336
-0.000366432
-0.000492877
-0.000561319
-0.000589018
-0.000617741
-0.00064724
-0.000666854
-0.000675118
-0.000672438
-0.000653761
-0.000610702
-0.000540468
-0.000459418
-0.000404263
-0.000373497
-0.000500529
-0.000568197
-0.00059385
-0.000620635
-0.000648787
-0.000667425
-0.00067463
-0.000670205
-0.000649057
-0.000603188
-0.000530761
-0.000448848
-0.000393035
-0.000378993
-0.00050806
-0.000576044
-0.000599928
-0.000624712
-0.000651383
-0.000668794
-0.000674506
-0.000667898
-0.000643829
-0.000594763
-0.000519963
-0.000437259
-0.000381202
-0.000381715
-0.000514065
-0.00058347
-0.000606145
-0.000629163
-0.000654432
-0.000670447
-0.000674248
-0.000665114
-0.000637975
-0.000585746
-0.000508947
-0.000425964
-0.000370358
-0.000381183
-0.000517634
-0.000589394
-0.000611519
-0.000633098
-0.000657078
-0.000671529
-0.000673072
-0.000661117
-0.000630928
-0.000576021
-0.000497958
-0.000415233
-0.000360456
-0.000377775
-0.000518529
-0.000593323
-0.000615445
-0.000635749
-0.000658358
-0.000671005
-0.000669974
-0.000655033
-0.000621972
-0.000565118
-0.000486727
-0.000404703
-0.000350512
-0.000372496
-0.000517183
-0.000595346
-0.000617742
-0.000636682
-0.000657627
-0.00066814
-0.00066435
-0.00064637
-0.00061076
-0.000552786
-0.000474938
-0.000393902
-0.000339774
-0.000366326
-0.000514331
-0.000595882
-0.000618558
-0.000635835
-0.000654769
-0.000662999
-0.000656406
-0.000635568
-0.00059794
-0.000539612
-0.000462919
-0.000382977
-0.000328517
-0.000359941
-0.000510699
-0.000595408
-0.000618241
-0.00063358
-0.000650305
-0.000656316
-0.000647192
-0.000623998
-0.000585042
-0.000526988
-0.000451749
-0.000372891
-0.000318132
-0.00035398
-0.000507001
-0.000594371
-0.000617244
-0.000630662
-0.000645318
-0.000649378
-0.000638287
-0.000613504
-0.000573957
-0.000516611
-0.000442832
-0.000364917
-0.000310173
-0.00034951
-0.000504095
-0.000593047
-0.00061587
-0.000627912
-0.00064107
-0.000643744
-0.000631441
-0.000605878
-0.000566305
-0.000509773
-0.000437142
-0.000359833
-0.000305136
-0.000348538
-0.000503764
-0.00059231
-0.000614446
-0.000625799
-0.00063832
-0.000640324
-0.000627551
-0.000601882
-0.00056263
-0.000506801
-0.000434892
-0.000357778
-0.000302503
-0.0005236
-0.000556621
-0.000590567
-0.000613657
-0.000627981
-0.000636303
-0.00063654
-0.000627381
-0.00061013
-0.000587816
-0.000563887
-0.000537645
-0.000496422
-0.000453792
-0.000522537
-0.000559373
-0.000592573
-0.000617908
-0.000636107
-0.000648081
-0.000651111
-0.000643565
-0.000626862
-0.00060378
-0.000577623
-0.00054201
-0.000488176
-0.000434448
-0.000524104
-0.000560408
-0.000591731
-0.000617679
-0.000638232
-0.000652768
-0.000658421
-0.000653307
-0.000637853
-0.000612518
-0.000576861
-0.000529598
-0.000473907
-0.000424074
-0.000523824
-0.000559885
-0.00059054
-0.000616996
-0.000638638
-0.000654562
-0.000661769
-0.000658466
-0.000644613
-0.000620092
-0.000583527
-0.000534365
-0.000477573
-0.000429546
-0.000522671
-0.000558464
-0.000588967
-0.000616236
-0.000638614
-0.000655281
-0.000663584
-0.000661986
-0.000650604
-0.000628814
-0.00059402
-0.000544199
-0.000485438
-0.000438075
-0.00052143
-0.000556852
-0.000587352
-0.000615547
-0.000638661
-0.000655922
-0.00066515
-0.000665171
-0.000656188
-0.000637076
-0.000604006
-0.000553716
-0.000493419
-0.000446274
-0.000520035
-0.000555079
-0.000586029
-0.000615255
-0.0006391
-0.000656922
-0.000666974
-0.00066838
-0.000661324
-0.000644252
-0.000612374
-0.000561659
-0.000500283
-0.00045297
-0.000518338
-0.000553172
-0.00058499
-0.000615239
-0.000639784
-0.000658104
-0.000668822
-0.000671328
-0.000665697
-0.000649993
-0.000618793
-0.000567707
-0.000505648
-0.000458229
-0.000516723
-0.000551432
-0.000584043
-0.000615191
-0.000640394
-0.000659103
-0.00067033
-0.000673696
-0.000669112
-0.000654325
-0.000623484
-0.000572063
-0.000509502
-0.000462062
-0.000515623
-0.000550168
-0.000583233
-0.000614997
-0.000640701
-0.000659673
-0.000671271
-0.000675307
-0.000671529
-0.000657388
-0.000626709
-0.000574907
-0.000511845
-0.000464405
-0.000515375
-0.000549637
-0.000582792
-0.000614836
-0.000640746
-0.000659839
-0.000671676
-0.000676197
-0.000673003
-0.000659268
-0.000628574
-0.000576304
-0.000512727
-0.000465208
-0.000515834
-0.000549979
-0.000582996
-0.000614964
-0.000640761
-0.000659808
-0.000671727
-0.000676469
-0.000673569
-0.00065998
-0.000629055
-0.000576203
-0.0005121
-0.000464429
-0.000516756
-0.000551152
-0.000583987
-0.000615552
-0.00064096
-0.000659763
-0.00067155
-0.000676226
-0.000673292
-0.000659518
-0.000628076
-0.000574501
-0.000509862
-0.000462056
-0.00051796
-0.000553001
-0.000585682
-0.000616647
-0.000641464
-0.000659826
-0.000671252
-0.000675584
-0.000672248
-0.000657867
-0.000625561
-0.000571119
-0.000505983
-0.00045807
-0.00051933
-0.000555298
-0.000587893
-0.000618215
-0.000642325
-0.000660076
-0.000670918
-0.000674586
-0.000670433
-0.000654978
-0.000621437
-0.000566038
-0.000500471
-0.000452464
-0.000520736
-0.000557743
-0.000590411
-0.000620157
-0.000643504
-0.000660495
-0.0006705
-0.000673155
-0.000667733
-0.000650729
-0.000615611
-0.000559247
-0.00049331
-0.000445268
-0.000521977
-0.000560046
-0.000593052
-0.000622318
-0.000644849
-0.000660909
-0.000669791
-0.000671053
-0.000663902
-0.00064491
-0.000607979
-0.000550743
-0.000484593
-0.000436465
-0.000522787
-0.000561917
-0.000595559
-0.000624386
-0.000646035
-0.000660986
-0.000668459
-0.000667951
-0.000658653
-0.000637358
-0.000598581
-0.000540722
-0.000474626
-0.000426207
-0.000522814
-0.000563038
-0.000597505
-0.000625948
-0.000646623
-0.000660269
-0.000666126
-0.00066356
-0.000651857
-0.000628185
-0.000587812
-0.000529754
-0.000464071
-0.000415061
-0.000521787
-0.000563053
-0.000598441
-0.000626595
-0.000646244
-0.000658478
-0.000662579
-0.000657845
-0.000643767
-0.000617989
-0.000576565
-0.000518778
-0.000453794
-0.000404237
-0.000519602
-0.000561805
-0.000598172
-0.000626163
-0.000644817
-0.000655689
-0.000658102
-0.000651348
-0.000635222
-0.000607903
-0.000566115
-0.000509053
-0.000444933
-0.000395165
-0.000516487
-0.00055955
-0.000596815
-0.000624727
-0.000642599
-0.000652339
-0.000653368
-0.00064504
-0.000627451
-0.000599292
-0.000557729
-0.000501682
-0.000438423
-0.00038878
-0.000513076
-0.000556731
-0.000594775
-0.000622732
-0.000640197
-0.000649255
-0.000649415
-0.000640115
-0.000621726
-0.000593338
-0.000552296
-0.000497218
-0.000434592
-0.000385227
-0.000510092
-0.000553967
-0.000592519
-0.000620728
-0.000638324
-0.000647338
-0.000647266
-0.000637631
-0.000619017
-0.00059075
-0.000550179
-0.00049567
-0.000433257
-0.000384008
-0.000508168
-0.000551825
-0.000590494
-0.000619191
-0.000637497
-0.000647163
-0.000647547
-0.000638187
-0.000619794
-0.00059176
-0.00055136
-0.000496802
-0.000434099
-0.000384632
-0.000507504
-0.000550554
-0.000588901
-0.000618245
-0.000637744
-0.000648687
-0.000650176
-0.000641684
-0.000623921
-0.000596223
-0.000555712
-0.000500529
-0.000437061
-0.000387106
-0.000507807
-0.000549961
-0.000587532
-0.000617526
-0.000638549
-0.000651251
-0.000654417
-0.000647396
-0.000630763
-0.000603677
-0.000563004
-0.000506863
-0.000442309
-0.000391697
-0.000508622
-0.000549615
-0.000586069
-0.000616592
-0.000639274
-0.000654051
-0.00065934
-0.000654353
-0.000639429
-0.000613434
-0.000572842
-0.000515705
-0.000449899
-0.000398599
-0.000509451
-0.000549167
-0.000584314
-0.000615169
-0.000639428
-0.000656391
-0.00066408
-0.000661562
-0.000648912
-0.000624606
-0.000584572
-0.000526648
-0.000459517
-0.000407785
-0.000509977
-0.000548257
-0.000582079
-0.000613168
-0.000638818
-0.000657827
-0.000667915
-0.000668089
-0.000658171
-0.000636159
-0.000597309
-0.000539003
-0.000470612
-0.000418614
-0.00050995
-0.00054666
-0.000579312
-0.000610776
-0.00063763
-0.000658312
-0.000670572
-0.000673407
-0.000666428
-0.000647169
-0.000610154
-0.00055202
-0.000482613
-0.000430188
-0.000508951
-0.000544137
-0.000576104
-0.000608263
-0.000636236
-0.000658222
-0.000672232
-0.000677421
-0.000673324
-0.000657044
-0.000622392
-0.000565033
-0.000495024
-0.000441874
-0.000506552
-0.000540473
-0.000572419
-0.000605716
-0.000634957
-0.000658035
-0.00067334
-0.000680445
-0.000678908
-0.000665534
-0.0006335
-0.000577371
-0.000507176
-0.000453302
-0.000502571
-0.00053568
-0.00056817
-0.000602982
-0.000633688
-0.000657774
-0.000674033
-0.000682587
-0.000683134
-0.00067236
-0.000642886
-0.000588236
-0.000518211
-0.000464059
-0.000497397
-0.000530243
-0.000563592
-0.000600001
-0.000632171
-0.000657178
-0.000674164
-0.000683767
-0.000685896
-0.000677158
-0.000649828
-0.000596683
-0.000527146
-0.000473286
-0.000492166
-0.000525281
-0.000559528
-0.000597267
-0.000630726
-0.000656601
-0.000674152
-0.000684363
-0.000687376
-0.000679831
-0.000653886
-0.000601945
-0.000533
-0.000479823
-0.000489306
-0.000522679
-0.000557292
-0.000595722
-0.000630003
-0.000656491
-0.000674374
-0.000684707
-0.000687767
-0.000680384
-0.000654855
-0.000603518
-0.000534984
-0.000482413
-0.000491035
-0.000524154
-0.000558259
-0.000596242
-0.000630271
-0.000656746
-0.000674658
-0.000684753
-0.000687228
-0.00067898
-0.000652663
-0.000601041
-0.00053268
-0.00048016
-0.000496446
-0.000529122
-0.00056227
-0.000598871
-0.000631586
-0.000657357
-0.000674958
-0.000684582
-0.000686035
-0.000676206
-0.00064797
-0.000594984
-0.000526365
-0.000473463
-0.000503175
-0.000535853
-0.000568121
-0.000602929
-0.000633821
-0.000658446
-0.000675395
-0.000684301
-0.000684488
-0.000672646
-0.000641805
-0.000586627
-0.000517177
-0.000463793
-0.000509404
-0.000542789
-0.000574583
-0.000607676
-0.000636713
-0.000659978
-0.000676007
-0.000683968
-0.000682692
-0.000668579
-0.000634916
-0.000577277
-0.000506792
-0.000453229
-0.000513877
-0.00054871
-0.000580623
-0.000612446
-0.000639927
-0.000661854
-0.000676683
-0.000683302
-0.000680335
-0.000663888
-0.000627488
-0.00056765
-0.000496467
-0.000443331
-0.000516085
-0.000552892
-0.000585533
-0.000616682
-0.000643022
-0.000663684
-0.000677009
-0.00068186
-0.000676816
-0.000658015
-0.000619176
-0.000557805
-0.000486504
-0.000434271
-0.000516412
-0.000555251
-0.000589092
-0.00062003
-0.000645462
-0.000664796
-0.000676324
-0.000678955
-0.00067142
-0.000650174
-0.00060937
-0.000547362
-0.000476571
-0.000425114
-0.000515675
-0.000556175
-0.000591394
-0.00062226
-0.000646681
-0.00066443
-0.000673823
-0.000673815
-0.000663473
-0.000639727
-0.00059753
-0.000535831
-0.000466176
-0.000414996
-0.000514426
-0.000556088
-0.000592593
-0.000623218
-0.000646254
-0.000661984
-0.000668923
-0.000666086
-0.000652919
-0.00062694
-0.000584002
-0.00052338
-0.000455318
-0.000404142
-0.000512821
-0.000555339
-0.000592917
-0.000622986
-0.000644231
-0.000657584
-0.000661923
-0.000656382
-0.000640748
-0.000613175
-0.00057022
-0.000511172
-0.000444898
-0.000393919
-0.000511014
-0.000554279
-0.00059267
-0.000621903
-0.000641196
-0.000652183
-0.000654113
-0.00064632
-0.000628911
-0.000600532
-0.000558178
-0.000500922
-0.000436355
-0.000385929
-0.000509453
-0.00055329
-0.000592185
-0.000620554
-0.000638189
-0.000647295
-0.00064744
-0.000638175
-0.000619811
-0.000591269
-0.000549752
-0.00049403
-0.00043074
-0.000380821
-0.000508673
-0.000552723
-0.000591715
-0.000619243
-0.000635678
-0.000643648
-0.000642929
-0.000633148
-0.00061463
-0.000586368
-0.000545629
-0.000490932
-0.000428373
-0.000378282
-0.000574748
-0.00059049
-0.000609292
-0.000627981
-0.000641435
-0.000648929
-0.000650051
-0.000643786
-0.000630108
-0.000610858
-0.000588445
-0.000561351
-0.000521906
-0.000487548
-0.000578809
-0.000596686
-0.000614072
-0.000634717
-0.000650832
-0.000660337
-0.000662795
-0.000657188
-0.000643884
-0.000624791
-0.000602673
-0.000571428
-0.000524873
-0.000479657
-0.000580208
-0.000597395
-0.000613819
-0.000635374
-0.000654162
-0.000666685
-0.000671277
-0.000666864
-0.000653394
-0.000631595
-0.000601921
-0.00056326
-0.000517584
-0.000475906
-0.000578696
-0.000595798
-0.000612173
-0.000633947
-0.000653455
-0.000667266
-0.000672927
-0.000669325
-0.000656531
-0.000635273
-0.000605399
-0.000566423
-0.000521189
-0.000481384
-0.000576046
-0.000593324
-0.000610305
-0.000632727
-0.000652472
-0.000666633
-0.000673081
-0.000670748
-0.00066014
-0.00064167
-0.000614163
-0.000575343
-0.000528168
-0.000487869
-0.000573055
-0.000590487
-0.000608331
-0.000631719
-0.00065198
-0.000666543
-0.000673787
-0.000672967
-0.000664762
-0.000649077
-0.000623431
-0.000583951
-0.000534372
-0.000493625
-0.000569929
-0.000587483
-0.000606369
-0.00063082
-0.000651777
-0.000666908
-0.000674984
-0.000675612
-0.000669409
-0.000655835
-0.000631159
-0.000590683
-0.000539113
-0.000498121
-0.000566496
-0.000584399
-0.00060443
-0.000629899
-0.000651572
-0.000667258
-0.000676101
-0.000677979
-0.00067335
-0.000661107
-0.000636825
-0.000595435
-0.000542449
-0.000501539
-0.000563204
-0.000581468
-0.000602485
-0.000628852
-0.000651143
-0.000667297
-0.000676799
-0.000679709
-0.000676246
-0.000664882
-0.000640772
-0.000598664
-0.000544646
-0.000503914
-0.000560759
-0.000579215
-0.000600796
-0.000627807
-0.000650498
-0.00066699
-0.000677014
-0.000680741
-0.000678175
-0.000667483
-0.000643443
-0.000600726
-0.000545829
-0.000505249
-0.000559628
-0.000578063
-0.000599851
-0.000627104
-0.000649897
-0.000666542
-0.000676906
-0.000681219
-0.000679345
-0.00066915
-0.000645093
-0.000601809
-0.000546164
-0.000505554
-0.000559903
-0.000578281
-0.000599989
-0.00062706
-0.000649648
-0.000666228
-0.000676701
-0.000681314
-0.000679871
-0.000669964
-0.000645793