/*--------------------------------*- C++ -*----------------------------------*\
| =========                 |                                                 |
| \\      /  F ield         | OpenFOAM: The Open Source CFD Toolbox           |
|  \\    /   O peration     | Version:  5.0                                   |
|   \\  /    A nd           | Web:      www.OpenFOAM.org                      |
|    \\/     M anipulation  |                                                 |
\*---------------------------------------------------------------------------*/
FoamFile
{
    version     2.0;
    format      ascii;
    class       surfaceScalarField;
    location    "1";
    object      phi;
}
// * * * * * * * * * * * * * * * * * * * * * * * * * * * * * * * * * * * * * //

dimensions      [0 3 -1 0 0 0 0];

internalField   nonuniform List<scalar> 
370
(
1.83161e-14
8.91269e-21
1.8316e-14
2.05332e-20
1.83161e-14
1.11644e-20
1.8316e-14
1.60668e-20
1.8316e-14
1.70159e-20
1.8316e-14
2.89918e-20
1.8316e-14
-1.0158e-20
1.8316e-14
5.26677e-21
1.8316e-14
1.04643e-20
-1.83641e-20
1.82055e-14
3.37957e-20
1.82055e-14
4.04503e-20
1.82055e-14
1.74035e-20
1.82055e-14
3.24843e-20
1.82055e-14
2.52571e-20
1.82055e-14
4.76255e-20
1.82055e-14
9.73167e-21
1.82055e-14
1.78681e-20
1.82055e-14
-7.46482e-21
-4.21177e-20
1.7985e-14
1.07493e-20
1.79849e-14
7.43367e-20
1.7985e-14
1.81697e-20
1.79849e-14
5.11037e-20
1.79849e-14
2.9417e-20
1.79849e-14
3.947e-20
1.79849e-14
-1.59068e-20
1.79849e-14
2.17188e-20
1.79849e-14
-1.95486e-20
-4.13473e-20
1.76557e-14
-2.814e-20
1.76557e-14
5.6857e-20
1.76557e-14
5.49092e-21
1.76557e-14
6.77182e-20
1.76556e-14
4.07331e-21
1.76556e-14
1.42775e-20
1.76556e-14
-7.64309e-21
1.76556e-14
4.79582e-20
1.76556e-14
-2.78134e-20
-1.0882e-20
1.72195e-14
1.08608e-21
1.72195e-14
7.64436e-20
1.72195e-14
-3.5691e-20
1.72195e-14
7.23059e-20
1.72195e-14
-3.3073e-20
1.72194e-14
2.87785e-20
1.72194e-14
2.38111e-20
1.72194e-14
1.66277e-20
1.72194e-14
-3.17957e-20
-2.67954e-20
1.66788e-14
2.26506e-20
1.66788e-14
1.23987e-19
1.66788e-14
4.85187e-21
1.66788e-14
7.30686e-20
1.66788e-14
-3.23515e-20
1.66787e-14
3.83558e-20
1.66788e-14
8.62966e-21
1.66787e-14
1.14339e-20
1.66787e-14
-9.0067e-22
-1.15381e-20
1.60366e-14
-1.87868e-20
1.60366e-14
1.29998e-19
1.60366e-14
-6.25185e-21
1.60366e-14
6.80571e-20
1.60366e-14
-2.42699e-20
1.60366e-14
7.70213e-21
1.60366e-14
-2.31131e-21
1.60366e-14
3.92609e-20
1.60366e-14
-2.21724e-20
-1.67216e-20
1.52965e-14
-3.0304e-20
1.52965e-14
1.47724e-19
1.52965e-14
-5.22868e-20
1.52965e-14
6.76138e-20
1.52965e-14
1.26833e-21
1.52965e-14
5.26826e-20
1.52965e-14
-2.28345e-20
1.52965e-14
3.32554e-20
1.52965e-14
-4.80557e-20
-3.28265e-20
1.44626e-14
-5.99441e-21
1.44626e-14
1.68571e-19
1.44626e-14
-3.17134e-20
1.44626e-14
6.1193e-20
1.44626e-14
-4.32025e-21
1.44626e-14
4.12007e-20
1.44626e-14
-2.30923e-20
1.44626e-14
1.82749e-20
1.44626e-14
-6.64579e-20
-2.57352e-20
1.35396e-14
-1.27232e-20
1.35396e-14
1.76473e-19
1.35396e-14
-2.76801e-20
1.35396e-14
8.76364e-20
1.35396e-14
-5.7676e-22
1.35395e-14
1.24404e-20
1.35396e-14
-1.59201e-20
1.35395e-14
3.00857e-20
1.35395e-14
-2.20644e-20
1.44523e-20
1.25325e-14
-3.36113e-20
1.25325e-14
1.44811e-19
1.25325e-14
-1.06522e-20
1.25325e-14
9.96e-20
1.25325e-14
-3.37615e-21
1.25325e-14
-2.28839e-21
1.25325e-14
-1.10595e-20
1.25325e-14
3.80653e-20
1.25325e-14
7.40945e-21
4.03692e-20
1.1447e-14
-1.06574e-20
1.1447e-14
1.90582e-19
1.1447e-14
-3.09316e-20
1.1447e-14
1.07156e-19
1.1447e-14
-7.08162e-21
1.1447e-14
2.1772e-20
1.1447e-14
2.87192e-20
1.1447e-14
5.1953e-20
1.1447e-14
-2.08033e-20
1.64431e-20
1.02891e-14
-4.85869e-20
1.02891e-14
1.63652e-19
1.02891e-14
-4.16136e-20
1.02891e-14
1.10167e-19
1.02891e-14
-3.65833e-20
1.02891e-14
2.54048e-20
1.02891e-14
-1.57391e-20
1.02891e-14
1.63902e-20
1.02891e-14
-3.24551e-20
1.809e-20
9.06528e-15
-2.30066e-20
9.06528e-15
1.58034e-19
9.06529e-15
-4.83642e-20
9.06528e-15
9.48636e-20
9.06527e-15
-1.41794e-20
9.06527e-15
5.14485e-21
9.06527e-15
-5.72172e-20
9.06527e-15
-7.96277e-21
9.06527e-15
-5.54866e-20
7.97401e-21
7.7823e-15
-3.02112e-20
7.7823e-15
1.42388e-19
7.78231e-15
-2.91886e-20
7.78231e-15
9.66143e-20
7.7823e-15
-2.01855e-20
7.78229e-15
1.273e-20
7.7823e-15
-7.81593e-21
7.78229e-15
1.99935e-20
7.7823e-15
-4.43381e-20
1.58342e-20
6.44732e-15
-3.99501e-20
6.44732e-15
1.30592e-19
6.44733e-15
-2.94958e-20
6.44733e-15
7.92277e-20
6.44732e-15
-3.00867e-20
6.44732e-15
-9.55431e-21
6.44732e-15
-2.9804e-20
6.44732e-15
-1.49309e-20
6.44732e-15
-4.63658e-20
2.75342e-20
5.06777e-15
-4.7501e-20
5.06778e-15
8.147e-20
5.06778e-15
-2.34592e-20
5.06779e-15
4.70259e-20
5.06778e-15
-3.30146e-20
5.06778e-15
-2.50976e-20
5.06778e-15
-3.96044e-20
5.06778e-15
1.09722e-20
5.06778e-15
-5.21601e-20
-1.36749e-21
3.65133e-15
-4.56968e-20
3.65135e-15
3.99665e-20
3.65135e-15
-3.65237e-20
3.65136e-15
7.19717e-20
3.65135e-15
-2.78779e-20
3.65135e-15
-1.20401e-20
3.65136e-15
-1.24674e-20
3.65136e-15
3.63882e-20
3.65136e-15
-1.97626e-20
-7.44851e-21
2.20592e-15
-2.64154e-20
2.20594e-15
1.48191e-20
2.20593e-15
8.58121e-21
2.20595e-15
7.96515e-21
2.20593e-15
-1.37129e-20
2.20594e-15
1.20308e-20
2.20594e-15
-7.97826e-21
2.20594e-15
-7.34819e-21
2.20594e-15
-7.17387e-21
-2.50821e-21
7.39556e-16
7.39576e-16
7.39568e-16
7.39582e-16
7.39569e-16
7.39575e-16
7.39572e-16
7.39576e-16
7.39574e-16
)
;

boundaryField
{
    top
    {
        type            calculated;
        value           uniform 0;
    }
    bottom
    {
        type            symmetryPlane;
        value           uniform 0;
    }
    inlet
    {
        type            calculated;
        value           nonuniform 0();
    }
    outlet
    {
        type            calculated;
        value           nonuniform List<scalar> 
20
(
1.8316e-14
1.82054e-14
1.79849e-14
1.76556e-14
1.72194e-14
1.66787e-14
1.60366e-14
1.52965e-14
1.44626e-14
1.35395e-14
1.25325e-14
1.1447e-14
1.02891e-14
9.06526e-15
7.78229e-15
6.44732e-15
5.06778e-15
3.65135e-15
2.20594e-15
7.3957e-16
)
;
    }
    frontAndBack
    {
        type            empty;
        value           nonuniform 0();
    }
    procBoundary1to0
    {
        type            processor;
        value           nonuniform List<scalar> 
20
(
-1.83161e-14
-1.82055e-14
-1.7985e-14
-1.76557e-14
-1.72195e-14
-1.66788e-14
-1.60366e-14
-1.52965e-14
-1.44627e-14
-1.35396e-14
-1.25325e-14
-1.1447e-14
-1.02891e-14
-9.06529e-15
-7.78231e-15
-6.44733e-15
-5.06779e-15
-3.65136e-15
-2.20595e-15
-7.39585e-16
)
;
    }
}


// ************************************************************************* //
