/*--------------------------------*- C++ -*----------------------------------*\
| =========                 |                                                 |
| \\      /  F ield         | OpenFOAM: The Open Source CFD Toolbox           |
|  \\    /   O peration     | Version:  5.0                                   |
|   \\  /    A nd           | Web:      www.OpenFOAM.org                      |
|    \\/     M anipulation  |                                                 |
\*---------------------------------------------------------------------------*/
FoamFile
{
    version     2.0;
    format      ascii;
    class       surfaceScalarField;
    location    "1";
    object      phi;
}
// * * * * * * * * * * * * * * * * * * * * * * * * * * * * * * * * * * * * * //

dimensions      [0 3 -1 0 0 0 0];

internalField   nonuniform List<scalar> 
85
(
0.000100749
-1.94383e-19
0.000100749
-8.03492e-20
0.000100749
-1.20607e-19
0.000100749
6.23575e-20
-1.56439e-19
0.000100749
-1.35196e-19
0.000100749
-1.84469e-19
0.000100749
-2.29469e-19
0.000100749
2.46806e-19
-1.83167e-19
0.000100749
-1.07296e-19
0.000100749
-2.99105e-19
0.000100749
-3.41255e-19
0.000100749
3.30794e-19
-1.65596e-19
0.000100749
-1.15866e-19
0.000100749
-2.43092e-19
0.000100749
-5.64213e-19
0.000100749
2.9788e-19
-1.08203e-19
0.000100749
-1.6379e-19
0.000100749
-3.6192e-19
0.000100749
-6.24213e-19
0.000100749
3.76205e-19
-2.52559e-19
0.000100749
-1.41979e-19
0.000100749
-3.39522e-19
0.000100749
-7.38642e-19
0.000100749
3.8818e-19
-2.42831e-19
0.000100749
-2.43267e-19
0.000100749
-4.53929e-19
0.000100749
-9.27611e-19
0.000100749
5.45567e-19
-2.3703e-19
0.000100749
-3.50655e-19
0.000100749
-6.55016e-19
0.000100749
-1.12713e-18
0.000100749
6.11732e-19
-2.18626e-19
0.000100749
-3.29793e-19
0.000100749
-5.12217e-19
0.000100749
-1.02712e-18
0.000100749
5.8162e-19
-1.00697e-19
0.000100749
0.000100749
0.000100749
0.000100749
)
;

boundaryField
{
    top
    {
        type            calculated;
        value           nonuniform List<scalar> 5(-3.45982e-19 -5.17696e-19 -1.15481e-18 4.64377e-19 -1.89704e-19);
    }
    bottom
    {
        type            symmetryPlane;
        value           uniform 0;
    }
    inlet
    {
        type            calculated;
        value           nonuniform 0();
    }
    outlet
    {
        type            calculated;
        value           nonuniform List<scalar> 10(0.000100749 0.000100749 0.000100749 0.000100749 0.000100749 0.000100749 0.000100749 0.000100749 0.000100749 0.000100749);
    }
    frontAndBack
    {
        type            empty;
        value           nonuniform 0();
    }
    procBoundary1to0
    {
        type            processor;
        value           nonuniform List<scalar> 10(-0.000100749 -0.000100749 -0.000100749 -0.000100749 -0.000100749 -0.000100749 -0.000100749 -0.000100749 -0.000100749 -0.000100749);
    }
}


// ************************************************************************* //
