/*--------------------------------*- C++ -*----------------------------------*\
| =========                 |                                                 |
| \\      /  F ield         | OpenFOAM: The Open Source CFD Toolbox           |
|  \\    /   O peration     | Version:  5.0                                   |
|   \\  /    A nd           | Web:      www.OpenFOAM.org                      |
|    \\/     M anipulation  |                                                 |
\*---------------------------------------------------------------------------*/
FoamFile
{
    version     2.0;
    format      ascii;
    class       surfaceScalarField;
    location    "1";
    object      phi;
}
// * * * * * * * * * * * * * * * * * * * * * * * * * * * * * * * * * * * * * //

dimensions      [0 3 -1 0 0 0 0];

internalField   nonuniform List<scalar> 
40
(
0.0002
-1.1616e-12
0.0002
-5.80089e-12
0.0002
1.21006e-11
0.0002
2.41923e-11
8.07402e-12
0.000184
-2.07566e-11
0.000184
4.47597e-12
0.000184
3.01353e-11
0.000184
2.17745e-11
1.25726e-11
0.000152
-3.59877e-11
0.000152
1.54695e-11
0.000152
4.52775e-11
0.000152
1.81011e-11
1.30331e-11
0.000104
-3.33986e-11
0.000104
1.95922e-11
0.000104
4.10144e-11
0.000104
9.51001e-12
9.73406e-12
4e-05
4e-05
4e-05
3.99999e-05
)
;

boundaryField
{
    top
    {
        type            calculated;
        value           uniform 0;
    }
    bottom
    {
        type            symmetryPlane;
        value           uniform 0;
    }
    inlet
    {
        type            calculated;
        value           nonuniform 0();
    }
    outlet
    {
        type            calculated;
        value           nonuniform List<scalar> 5(0.0002 0.000184 0.000152 0.000104 3.99999e-05);
    }
    frontAndBack
    {
        type            empty;
        value           nonuniform 0();
    }
    procBoundary1to0
    {
        type            processor;
        value           nonuniform List<scalar> 5(-0.0002 -0.000184 -0.000152 -0.000104 -4e-05);
    }
}


// ************************************************************************* //
