/*--------------------------------*- C++ -*----------------------------------*\
| =========                 |                                                 |
| \\      /  F ield         | OpenFOAM: The Open Source CFD Toolbox           |
|  \\    /   O peration     | Version:  5.0                                   |
|   \\  /    A nd           | Web:      www.OpenFOAM.org                      |
|    \\/     M anipulation  |                                                 |
\*---------------------------------------------------------------------------*/
FoamFile
{
    version     2.0;
    format      ascii;
    class       volScalarField;
    location    "1";
    object      shearRate;
}
// * * * * * * * * * * * * * * * * * * * * * * * * * * * * * * * * * * * * * //

dimensions      [0 0 -1 0 0 0 0];

internalField   nonuniform List<scalar> 
50
(
2.19763e-14
2.50921e-14
2.2517e-14
6.11677e-15
9.38328e-15
2.27595e-14
2.90442e-14
4.35792e-14
6.60605e-15
2.17487e-14
2.25008e-14
2.96585e-14
8.95088e-15
2.27578e-14
7.2955e-15
4.43162e-14
2.79269e-14
9.1217e-15
2.42564e-14
2.27556e-14
2.21649e-14
2.78528e-14
2.32867e-14
2.28185e-14
2.18716e-14
2.25134e-14
2.67718e-14
9.97527e-15
7.36812e-15
2.8313e-15
2.28478e-14
1.72101e-14
8.20485e-15
4.34999e-14
6.52781e-14
4.47037e-14
2.526e-14
2.25459e-14
1.26498e-14
6.67148e-15
8.8232e-15
2.36841e-14
2.56392e-14
2.52492e-14
2.2167e-14
6.55994e-14
4.3966e-14
4.41571e-14
8.78994e-14
1.51827e-13
)
;

boundaryField
{
    top
    {
        type            zeroGradient;
    }
    bottom
    {
        type            symmetryPlane;
    }
    inlet
    {
        type            zeroGradient;
    }
    outlet
    {
        type            zeroGradient;
    }
    frontAndBack
    {
        type            empty;
    }
    procBoundary1to0
    {
        type            processor;
        value           nonuniform List<scalar> 10(2.3989e-14 5.14695e-15 2.6567e-14 2.58703e-14 1.26219e-14 1.22763e-14 2.44787e-14 9.96992e-15 2.18569e-14 2.17609e-14);
    }
}


// ************************************************************************* //
