/*--------------------------------*- C++ -*----------------------------------*\
| =========                 |                                                 |
| \\      /  F ield         | OpenFOAM: The Open Source CFD Toolbox           |
|  \\    /   O peration     | Version:  5.0                                   |
|   \\  /    A nd           | Web:      www.OpenFOAM.org                      |
|    \\/     M anipulation  |                                                 |
\*---------------------------------------------------------------------------*/
FoamFile
{
    version     2.0;
    format      ascii;
    class       volScalarField;
    location    "1";
    object      shearRate;
}
// * * * * * * * * * * * * * * * * * * * * * * * * * * * * * * * * * * * * * //

dimensions      [0 0 -1 0 0 0 0];

internalField   nonuniform List<scalar> 
200
(
2.26049e-10
2.26048e-10
2.26048e-10
2.26048e-10
2.2605e-10
2.26051e-10
2.26051e-10
2.26051e-10
2.26049e-10
2.26045e-10
6.76932e-10
6.7693e-10
6.76932e-10
6.76928e-10
6.7693e-10
6.76929e-10
6.7693e-10
6.7693e-10
6.76928e-10
6.76924e-10
1.12409e-09
1.12408e-09
1.12409e-09
1.12408e-09
1.12408e-09
1.12408e-09
1.12408e-09
1.12408e-09
1.12408e-09
1.12408e-09
1.565e-09
1.56499e-09
1.565e-09
1.56499e-09
1.565e-09
1.565e-09
1.565e-09
1.565e-09
1.565e-09
1.56499e-09
1.99724e-09
1.99722e-09
1.99723e-09
1.99722e-09
1.99722e-09
1.99722e-09
1.99722e-09
1.99722e-09
1.99722e-09
1.99722e-09
2.41836e-09
2.41833e-09
2.41835e-09
2.41834e-09
2.41834e-09
2.41833e-09
2.41834e-09
2.41834e-09
2.41834e-09
2.41834e-09
2.82603e-09
2.826e-09
2.82602e-09
2.826e-09
2.82601e-09
2.826e-09
2.82601e-09
2.826e-09
2.826e-09
2.826e-09
3.21799e-09
3.21795e-09
3.21797e-09
3.21795e-09
3.21796e-09
3.21795e-09
3.21796e-09
3.21795e-09
3.21795e-09
3.21795e-09
3.59204e-09
3.59199e-09
3.59202e-09
3.592e-09
3.59201e-09
3.592e-09
3.59201e-09
3.592e-09
3.592e-09
3.592e-09
3.94612e-09
3.94606e-09
3.9461e-09
3.94607e-09
3.94609e-09
3.94607e-09
3.94608e-09
3.94607e-09
3.94608e-09
3.94607e-09
4.27826e-09
4.27819e-09
4.27823e-09
4.27819e-09
4.27821e-09
4.27819e-09
4.2782e-09
4.2782e-09
4.2782e-09
4.2782e-09
4.5866e-09
4.58652e-09
4.58657e-09
4.58653e-09
4.58655e-09
4.58652e-09
4.58654e-09
4.58653e-09
4.58654e-09
4.58653e-09
4.86944e-09
4.86934e-09
4.8694e-09
4.86935e-09
4.86938e-09
4.86935e-09
4.86936e-09
4.86936e-09
4.86936e-09
4.86936e-09
5.12519e-09
5.12508e-09
5.12515e-09
5.12509e-09
5.12512e-09
5.12509e-09
5.12511e-09
5.12509e-09
5.1251e-09
5.1251e-09
5.35244e-09
5.3523e-09
5.35238e-09
5.35231e-09
5.35236e-09
5.35231e-09
5.35234e-09
5.35232e-09
5.35233e-09
5.35233e-09
5.54988e-09
5.54972e-09
5.54982e-09
5.54974e-09
5.54979e-09
5.54974e-09
5.54977e-09
5.54975e-09
5.54976e-09
5.54976e-09
5.71641e-09
5.71622e-09
5.71635e-09
5.71625e-09
5.71632e-09
5.71626e-09
5.71629e-09
5.71627e-09
5.71628e-09
5.71628e-09
5.85109e-09
5.85087e-09
5.85103e-09
5.85091e-09
5.85099e-09
5.85093e-09
5.85097e-09
5.85094e-09
5.85095e-09
5.85096e-09
5.95319e-09
5.95295e-09
5.95314e-09
5.953e-09
5.95309e-09
5.95302e-09
5.95308e-09
5.95304e-09
5.95305e-09
5.95306e-09
6.02219e-09
6.0219e-09
6.02215e-09
6.02196e-09
6.02207e-09
6.02199e-09
6.02207e-09
6.02202e-09
6.02201e-09
6.022e-09
)
;

boundaryField
{
    top
    {
        type            zeroGradient;
    }
    bottom
    {
        type            symmetryPlane;
    }
    inlet
    {
        type            zeroGradient;
    }
    outlet
    {
        type            zeroGradient;
    }
    frontAndBack
    {
        type            empty;
    }
    procBoundary1to0
    {
        type            processor;
        value           nonuniform List<scalar> 
20
(
2.26048e-10
6.76927e-10
1.12407e-09
1.56499e-09
1.99722e-09
2.41833e-09
2.826e-09
3.21795e-09
3.59199e-09
3.94606e-09
4.27818e-09
4.58651e-09
4.86933e-09
5.12506e-09
5.35228e-09
5.54969e-09
5.71618e-09
5.8508e-09
5.95284e-09
6.02178e-09
)
;
    }
}


// ************************************************************************* //
