/*--------------------------------*- C++ -*----------------------------------*\
| =========                 |                                                 |
| \\      /  F ield         | OpenFOAM: The Open Source CFD Toolbox           |
|  \\    /   O peration     | Version:  5.0                                   |
|   \\  /    A nd           | Web:      www.OpenFOAM.org                      |
|    \\/     M anipulation  |                                                 |
\*---------------------------------------------------------------------------*/
FoamFile
{
    version     2.0;
    format      ascii;
    class       volVectorField;
    location    "1";
    object      U;
}
// * * * * * * * * * * * * * * * * * * * * * * * * * * * * * * * * * * * * * //

dimensions      [0 1 -1 0 0 0 0];

internalField   nonuniform List<vector> 
200
(
(3.66327e-10 7.15581e-18 -6.62971e-37)
(3.66317e-10 2.05347e-17 0)
(3.66324e-10 1.38584e-17 0)
(3.66319e-10 2.05823e-17 0)
(3.66322e-10 2.46814e-17 0)
(3.66319e-10 1.84423e-17 3.81178e-35)
(3.66321e-10 -9.61418e-18 -5.74391e-47)
(3.6632e-10 3.81194e-18 1.68284e-49)
(3.6632e-10 2.17487e-17 -1.15007e-55)
(3.6632e-10 -1.96712e-17 -3.88898e-35)
(3.64115e-10 4.67232e-17 -3.31209e-35)
(3.64106e-10 6.42238e-17 -3.30208e-35)
(3.64112e-10 3.34487e-17 0)
(3.64108e-10 4.36834e-17 0)
(3.64111e-10 4.09942e-17 -3.48296e-35)
(3.64108e-10 6.57096e-17 5.09056e-36)
(3.6411e-10 -1.14636e-17 3.22504e-35)
(3.64109e-10 1.98721e-17 3.31065e-35)
(3.64109e-10 4.40427e-18 -8.48427e-37)
(3.64109e-10 -7.15096e-17 -3.3155e-35)
(3.59705e-10 4.21049e-17 3.31201e-35)
(3.59695e-10 1.14752e-16 8.48427e-37)
(3.59702e-10 3.58813e-17 -3.30895e-35)
(3.59697e-10 8.65907e-17 -3.31294e-35)
(3.597e-10 5.19719e-17 6.88142e-35)
(3.59697e-10 7.6818e-17 3.81758e-35)
(3.59699e-10 -1.83867e-17 -6.53459e-35)
(3.59698e-10 4.56487e-17 1.47019e-46)
(3.59698e-10 -2.33898e-17 -1.10272e-46)
(3.59698e-10 -8.01411e-17 -6.81745e-36)
(3.53119e-10 -2.13923e-17 2.80286e-35)
(3.5311e-10 1.47637e-16 -3.61706e-51)
(3.53116e-10 2.67361e-17 9.18395e-53)
(3.53111e-10 1.22101e-16 -3.67828e-47)
(3.53115e-10 2.09095e-17 7.63585e-36)
(3.53112e-10 5.10858e-17 -8.48427e-37)
(3.53114e-10 -2.13986e-17 3.30963e-35)
(3.53112e-10 6.38613e-17 -3.14088e-35)
(3.53113e-10 -5.26273e-17 7.32096e-47)
(3.53112e-10 -5.77557e-17 6.12105e-35)
(3.44395e-10 -2.41498e-17 -1.69685e-36)
(3.44386e-10 1.29816e-16 2.54528e-36)
(3.44392e-10 -2.05659e-17 3.30895e-35)
(3.44387e-10 1.43337e-16 -1.6524e-49)
(3.44391e-10 -3.76694e-17 -8.48427e-37)
(3.44388e-10 4.71131e-17 -3.22343e-35)
(3.4439e-10 1.08843e-17 3.30971e-35)
(3.44389e-10 5.87173e-17 3.22572e-35)
(3.44389e-10 -6.08481e-17 -2.20522e-46)
(3.44389e-10 -2.98477e-17 3.40873e-36)
(3.33581e-10 6.48681e-18 -3.56602e-35)
(3.33572e-10 1.86606e-16 -3.47193e-35)
(3.33578e-10 -3.33459e-17 3.30912e-35)
(3.33574e-10 1.49517e-16 -3.31328e-35)
(3.33577e-10 -7.29047e-17 3.31362e-35)
(3.33574e-10 6.66445e-17 3.13867e-35)
(3.33576e-10 3.13062e-17 -3.13994e-35)
(3.33575e-10 2.73787e-17 1.09501e-52)
(3.33575e-10 -4.10813e-17 -3.39524e-35)
(3.33575e-10 -2.53622e-17 -3.2313e-35)
(3.20737e-10 -9.74834e-18 3.31141e-35)
(3.20729e-10 2.50885e-16 3.21741e-35)
(3.20735e-10 -2.25279e-17 3.13944e-35)
(3.2073e-10 1.4111e-16 -3.31319e-35)
(3.20733e-10 -5.84408e-17 -6.6274e-35)
(3.20731e-10 3.5721e-17 9.84048e-35)
(3.20732e-10 2.18088e-17 4.41207e-46)
(3.20731e-10 5.97285e-17 -3.31048e-35)
(3.20731e-10 -3.24972e-17 3.22555e-35)
(3.20731e-10 -3.7396e-17 -7.88426e-53)
(3.05936e-10 -4.78995e-17 2.80219e-35)
(3.05927e-10 2.66064e-16 3.13273e-35)
(3.05933e-10 -7.7304e-17 -3.30921e-35)
(3.05928e-10 1.28318e-16 -7.35658e-47)
(3.05931e-10 -1.64853e-17 3.48339e-35)
(3.05929e-10 5.78384e-17 3.6479e-35)
(3.0593e-10 -2.47454e-17 2.93966e-46)
(3.05929e-10 8.30327e-17 -3.05587e-35)
(3.0593e-10 -5.82824e-17 3.39507e-35)
(3.05929e-10 -5.41913e-17 6.54771e-35)
(2.89258e-10 -2.38025e-17 3.31116e-35)
(2.89249e-10 3.15581e-16 8.48427e-37)
(2.89255e-10 -8.85989e-17 -6.61858e-35)
(2.89251e-10 1.2254e-16 -3.48296e-35)
(2.89254e-10 4.39848e-18 6.5429e-35)
(2.89251e-10 8.54198e-17 3.05391e-35)
(2.89253e-10 -4.72914e-17 -3.30963e-35)
(2.89252e-10 5.56359e-17 -6.62062e-35)
(2.89252e-10 -1.08089e-16 3.05553e-35)
(2.89252e-10 -7.84513e-17 6.80382e-35)
(2.70796e-10 -1.97348e-17 -3.31116e-35)
(2.70788e-10 3.41788e-16 3.30242e-35)
(2.70794e-10 -6.46944e-17 6.61841e-35)
(2.7079e-10 1.43716e-16 -3.31328e-35)
(2.70793e-10 2.83568e-18 -6.62808e-35)
(2.7079e-10 4.65642e-17 3.30844e-35)
(2.70792e-10 -4.23471e-17 -3.78764e-67)
(2.70791e-10 3.25188e-17 3.14045e-35)
(2.70791e-10 -8.73328e-17 3.31005e-35)
(2.70791e-10 -9.77109e-18 1.47303e-46)
(2.50655e-10 -5.08337e-17 -2.54528e-36)
(2.50647e-10 3.2559e-16 -8.79934e-46)
(2.50652e-10 -2.47404e-17 -6.53357e-35)
(2.50648e-10 1.79416e-16 -1.50688e-49)
(2.50651e-10 -5.15013e-18 6.62808e-35)
(2.50649e-10 1.10263e-18 3.2236e-35)
(2.5065e-10 -2.28829e-17 -1.46966e-46)
(2.50649e-10 5.80486e-17 -6.78996e-35)
(2.5065e-10 -2.41389e-17 1.47321e-46)
(2.50649e-10 5.46095e-17 6.46317e-35)
(2.28944e-10 -4.84484e-17 -3.3109e-35)
(2.28937e-10 3.45003e-16 -3.1329e-35)
(2.28942e-10 -3.3758e-17 3.22453e-35)
(2.28938e-10 2.16645e-16 -3.31319e-35)
(2.28941e-10 -7.87757e-18 -1.10528e-46)
(2.28939e-10 1.23449e-17 8.48427e-37)
(2.2894e-10 2.21055e-17 1.7178e-49)
(2.28939e-10 9.25203e-17 3.47991e-35)
(2.2894e-10 -2.19318e-17 -3.22555e-35)
(2.2894e-10 5.32364e-17 -3.40179e-35)
(2.05786e-10 -4.90244e-17 -1.47099e-46)
(2.05779e-10 3.56858e-16 -8.48427e-37)
(2.05784e-10 -7.28203e-17 3.30938e-35)
(2.05781e-10 2.15988e-16 -3.64965e-47)
(2.05783e-10 -3.78485e-17 -3.31396e-35)
(2.05781e-10 4.6748e-17 6.61722e-35)
(2.05783e-10 6.16524e-18 -2.97e-35)
(2.05782e-10 7.59401e-17 -3.22521e-35)
(2.05782e-10 -5.43936e-17 3.31039e-35)
(2.05782e-10 3.36176e-17 -1.47286e-46)
(1.81309e-10 -5.82632e-17 -7.17896e-50)
(1.81303e-10 3.47038e-16 3.39371e-36)
(1.81308e-10 -8.97191e-17 3.30946e-35)
(1.81304e-10 2.03357e-16 2.54528e-36)
(1.81307e-10 -4.18532e-17 -6.71276e-35)
(1.81305e-10 2.25372e-17 6.78708e-35)
(1.81306e-10 -6.65648e-17 3.39371e-36)
(1.81305e-10 2.23921e-17 -3.5645e-35)
(1.81305e-10 -1.06202e-16 2.54528e-36)
(1.81305e-10 1.5029e-17 -3.31663e-35)
(1.55649e-10 -5.15942e-17 -6.62147e-35)
(1.55644e-10 3.00679e-16 3.55712e-35)
(1.55648e-10 -8.69602e-17 -1.46065e-46)
(1.55645e-10 1.95931e-16 -4.41711e-46)
(1.55647e-10 -3.16851e-17 3.31387e-35)
(1.55645e-10 4.21373e-18 -3.30853e-35)
(1.55646e-10 -6.05676e-17 3.47898e-35)
(1.55646e-10 1.27258e-17 -1.46992e-46)
(1.55646e-10 -1.17042e-16 1.47148e-46)
(1.55646e-10 1.59581e-17 3.31692e-35)
(1.28949e-10 -7.10854e-17 -3.31056e-35)
(1.28944e-10 2.57479e-16 -2.54528e-36)
(1.28948e-10 -7.71502e-17 6.44957e-35)
(1.28945e-10 1.69318e-16 -2.93968e-46)
(1.28947e-10 -5.4547e-17 -6.62757e-35)
(1.28946e-10 -1.07059e-18 0)
(1.28947e-10 -4.34288e-17 7.34876e-47)
(1.28946e-10 6.46748e-18 3.39464e-35)
(1.28946e-10 -1.06104e-16 -1.69685e-36)
(1.28946e-10 3.4534e-17 -3.31714e-35)
(1.01358e-10 -8.93426e-17 -3.31048e-35)
(1.01354e-10 2.21223e-16 -3.47244e-35)
(1.01357e-10 -7.06699e-17 3.4794e-35)
(1.01355e-10 1.2722e-16 8.48427e-37)
(1.01356e-10 -6.60269e-17 -3.3137e-35)
(1.01355e-10 -2.20361e-17 3.054e-35)
(1.01356e-10 -6.05557e-17 7.36453e-47)
(1.01355e-10 6.32662e-18 -8.48427e-37)
(1.01356e-10 -1.01386e-16 3.48025e-35)
(1.01356e-10 4.34883e-17 -7.36613e-47)
(7.30288e-11 -1.02113e-16 -1.46713e-46)
(7.30255e-11 1.34853e-16 3.13316e-35)
(7.30281e-11 -6.97093e-17 -1.46985e-46)
(7.30264e-11 1.00748e-16 0)
(7.30276e-11 -6.65224e-17 -5.09812e-68)
(7.30266e-11 -2.96024e-17 -3.30844e-35)
(7.30274e-11 -4.79523e-17 -8.48427e-37)
(7.3027e-11 5.68902e-17 -7.35017e-47)
(7.30272e-11 -6.43126e-17 -3.31048e-35)
(7.30271e-11 3.23257e-18 -7.36619e-47)
(4.41199e-11 -7.54384e-17 -3.67497e-47)
(4.41177e-11 5.30512e-17 -3.30284e-35)
(4.41194e-11 -3.7724e-17 -1.46984e-46)
(4.41184e-11 7.13403e-17 1.50856e-49)
(4.41192e-11 -4.49618e-17 -3.31345e-35)
(4.41185e-11 9.45381e-18 6.70173e-35)
(4.4119e-11 -2.07843e-17 -7.32055e-47)
(4.41187e-11 3.64883e-17 -3.47949e-35)
(4.41188e-11 -2.9962e-17 3.31022e-35)
(4.41188e-11 -6.12574e-18 -1.70436e-36)
(1.47918e-11 -2.968e-17 0)
(1.4791e-11 1.46426e-17 0)
(1.47917e-11 -7.73871e-18 3.92646e-37)
(1.47913e-11 1.5357e-17 0)
(1.47916e-11 -1.22992e-17 -2.30022e-35)
(1.47913e-11 1.88802e-17 2.29669e-35)
(1.47915e-11 -9.40204e-18 -2.29757e-35)
(1.47914e-11 1.4876e-18 -2.25836e-35)
(1.47915e-11 -1.37014e-18 4.59585e-35)
(1.47914e-11 3.06399e-19 0)
)
;

boundaryField
{
    top
    {
        type            fixedValue;
        value           uniform (0 0 0);
    }
    bottom
    {
        type            symmetryPlane;
    }
    inlet
    {
        type            pressureInletVelocity;
        value           nonuniform 0();
    }
    outlet
    {
        type            inletOutlet;
        inletValue      uniform (1 0 0);
        value           nonuniform List<vector> 
20
(
(3.6632e-10 -1.96712e-17 -3.88898e-35)
(3.64109e-10 -7.15096e-17 -3.3155e-35)
(3.59698e-10 -8.01411e-17 -6.81745e-36)
(3.53112e-10 -5.77557e-17 6.12105e-35)
(3.44389e-10 -2.98477e-17 3.40873e-36)
(3.33575e-10 -2.53622e-17 -3.2313e-35)
(3.20731e-10 -3.7396e-17 -7.88426e-53)
(3.05929e-10 -5.41913e-17 6.54771e-35)
(2.89252e-10 -7.84513e-17 6.80382e-35)
(2.70791e-10 -9.77109e-18 1.47303e-46)
(2.50649e-10 5.46095e-17 6.46317e-35)
(2.2894e-10 5.32364e-17 -3.40179e-35)
(2.05782e-10 3.36176e-17 -1.47286e-46)
(1.81305e-10 1.5029e-17 -3.31663e-35)
(1.55646e-10 1.59581e-17 3.31692e-35)
(1.28946e-10 3.4534e-17 -3.31714e-35)
(1.01356e-10 4.34883e-17 -7.36613e-47)
(7.30271e-11 3.23257e-18 -7.36619e-47)
(4.41188e-11 -6.12574e-18 -1.70436e-36)
(1.47914e-11 3.06399e-19 0)
)
;
    }
    frontAndBack
    {
        type            empty;
    }
    procBoundary1to0
    {
        type            processor;
        value           nonuniform List<vector> 
20
(
(3.66316e-10 1.42374e-17 0)
(3.64104e-10 8.46331e-17 -6.61162e-35)
(3.59694e-10 2.00817e-16 -3.05111e-35)
(3.53108e-10 2.5988e-16 3.56e-35)
(3.44384e-10 2.84457e-16 6.61078e-35)
(3.3357e-10 3.25744e-16 3.1357e-35)
(3.20727e-10 3.61224e-16 -6.61095e-35)
(3.05925e-10 3.76779e-16 8.48427e-37)
(2.89247e-10 3.91722e-16 6.61095e-35)
(2.70786e-10 4.08693e-16 -3.30547e-35)
(2.50645e-10 4.46065e-16 3.6618e-47)
(2.28935e-10 4.67128e-16 3.13579e-35)
(2.05778e-10 4.17046e-16 -7.16779e-50)
(1.81301e-10 3.88813e-16 7.16807e-50)
(1.55642e-10 3.90614e-16 -3.30564e-35)
(1.28943e-10 3.6899e-16 -7.16797e-50)
(1.01352e-10 3.51616e-16 3.30573e-35)
(7.30244e-11 2.73518e-16 2.86729e-49)
(4.41169e-11 1.38758e-16 3.30581e-35)
(1.47908e-11 4.16321e-17 2.29486e-35)
)
;
    }
}


// ************************************************************************* //
