/*--------------------------------*- C++ -*----------------------------------*\
| =========                 |                                                 |
| \\      /  F ield         | OpenFOAM: The Open Source CFD Toolbox           |
|  \\    /   O peration     | Version:  5.0                                   |
|   \\  /    A nd           | Web:      www.OpenFOAM.org                      |
|    \\/     M anipulation  |                                                 |
\*---------------------------------------------------------------------------*/
FoamFile
{
    version     2.0;
    format      ascii;
    class       volVectorField;
    location    "1";
    object      U;
}
// * * * * * * * * * * * * * * * * * * * * * * * * * * * * * * * * * * * * * //

dimensions      [0 1 -1 0 0 0 0];

internalField   nonuniform List<vector> 
50
(
(1.00749 -1.03219e-16 -5.86403e-37)
(1.00749 -4.94594e-17 -2.15589e-37)
(1.00749 -5.84981e-17 2.82422e-37)
(1.00749 4.1007e-17 4.65756e-49)
(1.00749 -1.0589e-16 -1.5998e-37)
(1.00749 -2.14443e-16 3.87911e-36)
(1.00749 -1.49686e-16 1.81692e-36)
(1.00749 -1.77075e-16 -4.76032e-37)
(1.00749 1.30307e-16 1.81692e-36)
(1.00749 -1.62042e-16 -1.55164e-36)
(1.00749 -1.01429e-16 1.57163e-36)
(1.00749 -2.42536e-16 -3.81189e-36)
(1.00749 -2.84621e-16 -2.34382e-37)
(1.00749 2.7046e-16 -3.63383e-36)
(1.00749 -1.83341e-16 3.78198e-36)
(1.00749 -9.73384e-17 3.14326e-36)
(1.00749 -2.63397e-16 -1.99679e-36)
(1.00749 -4.42744e-16 -1.81692e-36)
(1.00749 2.97069e-16 2.63453e-37)
(1.00749 -1.5947e-16 5.46353e-36)
(1.00749 -1.14437e-16 -4.90567e-37)
(1.00749 -3.0681e-16 -1.83508e-37)
(1.00749 -5.91862e-16 3.63383e-36)
(1.00749 3.47451e-16 0)
(1.00749 -1.77229e-16 0)
(1.00749 -1.27367e-16 -8.20236e-49)
(1.00749 -3.49518e-16 -3.9569e-49)
(1.00749 -6.80898e-16 3.63383e-36)
(1.00749 3.6584e-16 0)
(1.00749 -2.42365e-16 0)
(1.00749 -1.79336e-16 2.06038e-36)
(1.00749 -3.98697e-16 -3.44669e-36)
(1.00749 -8.32444e-16 -4.6513e-37)
(1.00749 4.81737e-16 -5.1237e-37)
(1.00749 -2.43802e-16 0)
(1.00749 -3.17128e-16 -3.63383e-36)
(1.00749 -5.5331e-16 -3.25955e-36)
(1.00749 -1.06477e-15 -5.68149e-36)
(1.00749 5.83422e-16 -3.89002e-36)
(1.00749 -2.26764e-16 -1.51765e-37)
(1.00749 -3.47184e-16 1.81692e-36)
(1.00749 -6.01187e-16 -3.63383e-36)
(1.00749 -1.11621e-15 6.33233e-49)
(1.00749 5.85329e-16 2.54368e-37)
(1.00749 -1.74291e-16 1.6682e-36)
(1.00749 -3.5112e-16 -4.60848e-37)
(1.00749 -5.12938e-16 7.01589e-37)
(1.00749 -1.10585e-15 -6.87832e-36)
(1.00749 5.12137e-16 -1.44445e-36)
(1.00749 -1.40929e-16 1.7042e-36)
)
;

boundaryField
{
    top
    {
        type            zeroGradient;
    }
    bottom
    {
        type            symmetryPlane;
    }
    inlet
    {
        type            pressureInletVelocity;
        value           nonuniform 0();
    }
    outlet
    {
        type            inletOutlet;
        inletValue      uniform (1 0 0);
        value           nonuniform List<vector> 10((1.00749 -1.0589e-16 -1.5998e-37) (1.00749 -1.62042e-16 -1.55164e-36) (1.00749 -1.83341e-16 3.78198e-36) (1.00749 -1.5947e-16 5.46353e-36) (1.00749 -1.77229e-16 0) (1.00749 -2.42365e-16 0) (1.00749 -2.43802e-16 0) (1.00749 -2.26764e-16 -1.51765e-37) (1.00749 -1.74291e-16 1.6682e-36) (1.00749 -1.40929e-16 1.7042e-36));
    }
    frontAndBack
    {
        type            empty;
    }
    procBoundary1to0
    {
        type            processor;
        value           nonuniform List<vector> 10((1.00749 -2.84421e-17 -1.43726e-36) (1.00749 -5.03845e-17 2.03494e-37) (1.00749 1.20172e-17 4.03355e-37) (1.00749 1.26172e-16 -2.22027e-36) (1.00749 2.50622e-16 -4.03355e-37) (1.00749 2.881e-16 2.03494e-37) (1.00749 3.39801e-16 1.81692e-36) (1.00749 3.68929e-16 -6.21385e-37) (1.00749 3.76685e-16 3.63383e-36) (1.00749 3.71928e-16 2.29277e-36));
    }
}


// ************************************************************************* //
