/*--------------------------------*- C++ -*----------------------------------*\
| =========                 |                                                 |
| \\      /  F ield         | OpenFOAM: The Open Source CFD Toolbox           |
|  \\    /   O peration     | Version:  5.0                                   |
|   \\  /    A nd           | Web:      www.OpenFOAM.org                      |
|    \\/     M anipulation  |                                                 |
\*---------------------------------------------------------------------------*/
FoamFile
{
    version     2.0;
    format      ascii;
    class       volVectorField;
    location    "1";
    object      U;
}
// * * * * * * * * * * * * * * * * * * * * * * * * * * * * * * * * * * * * * //

dimensions      [0 1 -1 0 0 0 0];

internalField   nonuniform List<vector> 
25
(
(1 -1.10626e-09 6.46483e-23)
(1 -2.39375e-09 3.23241e-23)
(1 4.42753e-09 -3.23241e-23)
(1 8.37774e-09 4.04377e-28)
(0.999999 2.57834e-09 3.26276e-23)
(0.92 -1.17956e-08 -2.79794e-23)
(0.92 -2.88862e-10 1.22027e-29)
(0.92 2.17979e-08 5.59585e-23)
(0.92 2.27753e-08 5.15416e-28)
(0.919999 1.06025e-08 -5.64501e-23)
(0.76 -2.92811e-08 2.79791e-23)
(0.76 9.69759e-09 2.79797e-23)
(0.76 3.80839e-08 2.79808e-23)
(0.76 1.97233e-08 -4.88408e-28)
(0.759999 1.24462e-08 -2.82614e-23)
(0.52 -3.76348e-08 5.59584e-23)
(0.52 1.9162e-08 2.79799e-23)
(0.52 4.66027e-08 9.07787e-28)
(0.52 1.4489e-08 -2.79793e-23)
(0.519999 1.20493e-08 3.32143e-28)
(0.2 -1.38275e-08 3.9879e-23)
(0.2 7.23042e-09 1.99394e-23)
(0.2 1.52382e-08 -2.23551e-28)
(0.2 1.88482e-09 0)
(0.2 2.62947e-09 0)
)
;

boundaryField
{
    top
    {
        type            fixedValue;
        value           uniform (0 0 0);
    }
    bottom
    {
        type            symmetryPlane;
    }
    inlet
    {
        type            pressureInletVelocity;
        value           nonuniform 0();
    }
    outlet
    {
        type            inletOutlet;
        inletValue      uniform (1 0 0);
        value           nonuniform List<vector> 5((0.999999 2.57834e-09 3.26276e-23) (0.919999 1.06025e-08 -5.64501e-23) (0.759999 1.24462e-08 -2.82614e-23) (0.519999 1.20493e-08 3.32143e-28) (0.2 2.62947e-09 0));
    }
    frontAndBack
    {
        type            empty;
    }
    procBoundary1to0
    {
        type            processor;
        value           nonuniform List<vector> 5((1 -1.09674e-09 -1.90126e-29) (0.92 -4.47622e-09 -2.79796e-23) (0.76 -6.41401e-09 -5.59591e-23) (0.52 -7.04622e-09 5.5959e-23) (0.2 -2.17886e-09 3.98789e-23));
    }
}


// ************************************************************************* //
