/*--------------------------------*- C++ -*----------------------------------*\
| =========                 |                                                 |
| \\      /  F ield         | OpenFOAM: The Open Source CFD Toolbox           |
|  \\    /   O peration     | Version:  5.0                                   |
|   \\  /    A nd           | Web:      www.OpenFOAM.org                      |
|    \\/     M anipulation  |                                                 |
\*---------------------------------------------------------------------------*/
FoamFile
{
    version     2.0;
    format      ascii;
    class       surfaceScalarField;
    location    "77";
    object      phi;
}
// * * * * * * * * * * * * * * * * * * * * * * * * * * * * * * * * * * * * * //

dimensions      [0 3 -1 0 0 0 0];

internalField   nonuniform List<scalar> 
3052
(
-6.45058e-19
-2.92641e-18
4.31508e-20
-6.98848e-19
9.70859e-18
-1.0241e-17
1.93489e-17
-1.03217e-17
2.72597e-17
-8.27284e-18
3.65799e-17
-9.63313e-18
4.68036e-17
-1.05384e-17
5.70259e-17
-1.05261e-17
6.71456e-17
-1.04268e-17
7.71798e-17
-1.03264e-17
8.69419e-17
-1.00417e-17
9.62755e-17
-9.59358e-18
1.05036e-16
-9.00398e-18
1.13144e-16
-8.33318e-18
1.2052e-16
-7.6035e-18
1.27109e-16
-6.80873e-18
1.32757e-16
-5.86607e-18
1.37539e-16
-4.98288e-18
1.41465e-16
-4.12112e-18
1.4454e-16
-3.24542e-18
1.46659e-16
-2.28114e-18
1.47869e-16
-1.33744e-18
1.48145e-16
-3.85481e-19
1.47605e-16
4.67852e-19
1.46166e-16
1.3746e-18
1.4395e-16
2.17758e-18
1.40956e-16
2.9563e-18
1.37406e-16
3.53998e-18
1.33288e-16
4.10856e-18
1.28828e-16
4.48465e-18
1.23987e-16
4.89454e-18
1.18912e-16
5.19801e-18
1.13495e-16
5.58213e-18
1.07915e-16
5.79561e-18
1.02124e-16
6.02214e-18
9.62962e-17
6.08392e-18
9.03328e-17
6.21529e-18
8.43861e-17
6.20994e-18
7.83912e-17
6.24753e-18
7.24481e-17
6.1889e-18
6.65017e-17
6.15883e-18
6.0673e-17
6.03024e-18
5.48985e-17
5.957e-18
4.92574e-17
5.82894e-18
4.37079e-17
5.74081e-18
3.83154e-17
5.59293e-18
3.30716e-17
5.44719e-18
2.80236e-17
5.25873e-18
2.31241e-17
5.10391e-18
1.84822e-17
4.85919e-18
1.40948e-17
4.59229e-18
1.00493e-17
4.18437e-18
6.63534e-18
3.68726e-18
2.95989e-18
3.71639e-18
1.04846e-18
1.9476e-18
1.04803e-18
4.6662e-18
-7.43314e-18
8.68816e-18
-6.24137e-18
1.01111e-17
-1.38639e-17
1.43505e-17
-1.55112e-17
2.28119e-17
-1.76669e-17
3.12106e-17
-1.88827e-17
3.94989e-17
-1.95564e-17
4.81487e-17
-1.98634e-17
5.69096e-17
-1.98317e-17
6.54811e-17
-1.95384e-17
7.37921e-17
-1.89422e-17
8.17452e-17
-1.80824e-17
8.92426e-17
-1.69917e-17
9.61534e-17
-1.57417e-17
1.02415e-16
-1.43296e-17
1.07942e-16
-1.27947e-17
1.12795e-16
-1.113e-17
1.16887e-16
-9.47556e-18
1.20211e-16
-7.78326e-18
1.22711e-16
-6.06957e-18
1.24459e-16
-4.27862e-18
1.25396e-16
-2.50187e-18
1.25589e-16
-7.19201e-19
1.24974e-16
9.50732e-19
1.23678e-16
2.60508e-18
1.2167e-16
4.11548e-18
1.19123e-16
5.49592e-18
1.16006e-16
6.64039e-18
1.12492e-16
7.67716e-18
1.08533e-16
8.53972e-18
1.04305e-16
9.35254e-18
9.98e-17
1.00146e-17
9.51681e-17
1.06476e-17
9.03353e-17
1.11019e-17
8.54133e-17
1.14799e-17
8.03434e-17
1.16759e-17
7.52853e-17
1.18304e-17
7.01734e-17
1.18467e-17
6.51104e-17
1.18261e-17
6.00482e-17
1.16949e-17
5.50681e-17
1.15595e-17
5.01003e-17
1.13495e-17
4.52555e-17
1.11582e-17
4.0507e-17
1.09266e-17
3.59071e-17
1.07156e-17
3.14188e-17
1.04641e-17
2.70754e-17
1.01957e-17
2.28659e-17
9.86636e-18
1.88841e-17
9.54351e-18
1.50662e-17
9.10641e-18
1.14197e-17
8.58239e-18
8.14465e-18
8.01309e-18
4.94924e-18
6.90722e-18
3.05971e-18
5.92752e-18
9.31796e-19
3.9492e-18
1.97196e-18
-1.17639e-18
-6.70849e-18
3.16975e-18
-1.16141e-17
7.32663e-18
-1.82585e-17
1.24638e-17
-2.13381e-17
1.83032e-17
-2.39672e-17
2.50304e-17
-2.58649e-17
3.19836e-17
-2.6684e-17
3.91246e-17
-2.71241e-17
4.63595e-17
-2.71763e-17
5.35073e-17
-2.67452e-17
6.04133e-17
-2.58825e-17
6.69754e-17
-2.46804e-17
7.31386e-17
-2.32076e-17
7.88361e-17
-2.14663e-17
8.39823e-17
-1.95045e-17
8.85432e-17
-1.73587e-17
9.25042e-17
-1.50921e-17
9.58108e-17
-1.27517e-17
9.84263e-17
-1.03751e-17
1.00357e-16
-7.95122e-18
1.01618e-16
-5.50646e-18
1.02229e-16
-3.05474e-18
1.02201e-16
-6.56751e-19
1.0155e-16
1.66076e-18
1.00334e-16
3.8608e-18
9.86046e-17
5.90884e-18
9.63997e-17
7.73851e-18
9.37509e-17
9.34919e-18
9.07134e-17
1.07483e-17
8.73489e-17
1.19558e-17
8.37287e-17
1.29992e-17
7.98926e-17
1.38947e-17
7.59048e-17
1.46372e-17
7.18048e-17
1.52064e-17
6.76425e-17
1.5613e-17
6.34361e-17
1.58768e-17
5.92204e-17
1.60131e-17
5.50167e-17
1.60309e-17
5.08539e-17
1.5949e-17
4.67379e-17
1.57825e-17
4.26954e-17
1.55417e-17
3.87428e-17
1.52654e-17
3.48886e-17
1.49668e-17
3.11331e-17
1.46548e-17
2.7498e-17
1.43222e-17
2.39823e-17
1.39693e-17
2.05881e-17
1.35842e-17
1.73283e-17
1.31753e-17
1.4224e-17
1.26994e-17
1.12893e-17
1.21468e-17
8.54506e-18
1.14527e-17
5.93967e-18
1.04828e-17
3.84439e-18
9.44844e-18
1.7897e-18
7.67819e-18
4.58313e-19
5.31499e-18
2.43335e-18
-1.57757e-18
-5.04675e-18
2.66636e-18
-1.54261e-17
5.21144e-18
-2.08953e-17
9.16036e-18
-2.53712e-17
1.40329e-17
-2.88755e-17
1.91795e-17
-3.09432e-17
2.46669e-17
-3.20293e-17
3.03881e-17
-3.2664e-17
3.61768e-17
-3.27326e-17
4.18621e-17
-3.21891e-17
4.7353e-17
-3.11591e-17
5.25748e-17
-2.97091e-17
5.74578e-17
-2.78958e-17
6.19441e-17
-2.5763e-17
6.59869e-17
-2.33518e-17
6.95459e-17
-2.07228e-17
7.2593e-17
-1.79379e-17
7.50891e-17
-1.50563e-17
7.70195e-17
-1.21126e-17
7.83759e-17
-9.13345e-18
7.91813e-17
-6.14304e-18
7.94447e-17
-3.18318e-18
7.92065e-17
-2.92688e-19
7.84803e-17
2.48674e-18
7.73221e-17
5.11861e-18
7.57557e-17
7.55243e-18
7.38302e-17
9.74275e-18
7.15541e-17
1.16683e-17
6.89912e-17
1.33358e-17
6.61546e-17
1.47624e-17
6.31152e-17
1.59577e-17
5.98927e-17
1.69346e-17
5.65767e-17
1.77131e-17
5.31793e-17
1.83043e-17
4.977e-17
1.8719e-17
4.63465e-17
1.89768e-17
4.29677e-17
1.90834e-17
3.96296e-17
1.90602e-17
3.6373e-17
1.89204e-17
3.32006e-17
1.86877e-17
3.01396e-17
1.8386e-17
2.71746e-17
1.80334e-17
2.43259e-17
1.76388e-17
2.15836e-17
1.722e-17
1.89562e-17
1.67835e-17
1.64321e-17
1.63316e-17
1.40203e-17
1.58562e-17
1.17207e-17
1.53578e-17
9.56668e-18
1.48171e-17
7.52912e-18
1.41444e-17
5.5932e-18
1.32993e-17
3.94566e-18
1.24141e-17
2.26301e-18
1.07573e-17
1.32776e-18
8.90723e-18
5.98374e-19
5.99862e-18
3.02987e-18
9.78128e-19
-5.84932e-18
1.74806e-18
-1.57793e-17
3.68691e-18
-2.27696e-17
6.31844e-18
-2.80711e-17
9.72587e-18
-3.22064e-17
1.35503e-17
-3.46509e-17
1.76922e-17
-3.60697e-17
2.20033e-17
-3.68595e-17
2.63477e-17
-3.69371e-17
3.06203e-17
-3.63284e-17
3.4722e-17
-3.51411e-17
3.8601e-17
-3.34743e-17
4.22136e-17
-3.13897e-17
4.55099e-17
-2.89352e-17
4.84489e-17
-2.61628e-17
5.10056e-17
-2.31493e-17
5.31452e-17
-1.99531e-17
5.48474e-17
-1.66387e-17
5.60951e-17
-1.32497e-17
5.68966e-17
-9.82731e-18
5.72526e-17
-6.40987e-18
5.71909e-17
-3.04221e-18
5.67274e-17
2.3309e-19
5.59035e-17
3.36856e-18
5.47443e-17
6.32357e-18
5.32972e-17
9.04735e-18
5.15746e-17
1.1497e-17
4.96185e-17
1.36538e-17
4.74485e-17
1.55138e-17
4.51091e-17
1.7084e-17
4.26152e-17
1.83737e-17
4.00137e-17
1.94146e-17
3.73341e-17
2.02189e-17
3.46459e-17
2.08051e-17
3.1976e-17
2.11852e-17
2.93627e-17
2.13899e-17
2.68104e-17
2.14299e-17
2.43524e-17
2.13253e-17
2.19934e-17
2.11014e-17
1.97592e-17
2.07786e-17
1.76542e-17
2.03728e-17
1.56863e-17
1.99068e-17
1.38313e-17
1.94054e-17
1.20922e-17
1.88785e-17
1.04594e-17
1.83385e-17
8.92953e-18
1.77898e-17
7.49644e-18
1.72341e-17
6.18505e-18
1.66535e-17
4.98166e-18
1.6017e-17
3.87559e-18
1.52921e-17
2.87922e-18
1.44058e-17
1.88551e-18
1.31442e-17
1.23374e-18
1.18023e-17
3.6096e-19
9.54756e-18
-1.81947e-19
6.58e-18
2.85106e-18
8.57114e-19
-6.55133e-18
9.86085e-19
-1.59123e-17
1.98944e-18
-2.38376e-17
3.79576e-18
-2.9818e-17
5.97237e-18
-3.43361e-17
8.47464e-18
-3.71678e-17
1.12425e-17
-3.88794e-17
1.4126e-17
-3.97733e-17
1.70171e-17
-3.98566e-17
1.98641e-17
-3.92031e-17
2.26063e-17
-3.79109e-17
2.51933e-17
-3.60795e-17
2.7576e-17
-3.37785e-17
2.97128e-17
-3.10672e-17
3.1581e-17
-2.80179e-17
3.31487e-17
-2.47048e-17
3.43985e-17
-2.11922e-17
3.53108e-17
-1.75446e-17
3.5885e-17
-1.38153e-17
3.61156e-17
-1.00552e-17
3.60231e-17
-6.31261e-18
3.56196e-17
-2.63749e-18
3.49356e-17
9.20718e-19
3.39896e-17
4.31195e-18
3.28201e-17
7.49384e-18
3.14447e-17
1.04184e-17
2.98982e-17
1.30489e-17
2.81973e-17
1.53636e-17
2.63763e-17
1.73524e-17
2.44554e-17
1.9017e-17
2.24709e-17
2.03698e-17
2.04476e-17
2.14318e-17
1.84336e-17
2.22273e-17
1.6456e-17
2.27691e-17
1.45488e-17
2.30784e-17
1.2727e-17
2.31882e-17
1.10117e-17
2.31261e-17
9.41393e-18
2.29028e-17
7.95611e-18
2.25478e-17
6.64222e-18
2.20892e-17
5.4789e-18
2.15486e-17
4.45284e-18
2.09509e-17
3.56372e-18
2.03193e-17
2.79912e-18
1.96689e-17
2.15455e-18
1.9015e-17
1.6185e-18
1.83651e-17
1.19105e-18
1.77115e-17
8.63579e-19
1.70431e-17
6.33666e-19
1.63518e-17
4.63457e-19
1.554e-17
2.86795e-19
1.45533e-17
2.21078e-19
1.3485e-17
-4.64424e-20
1.17445e-17
4.78993e-20
9.57798e-18
3.62742e-20
6.57824e-18
2.88559e-18
3.64428e-20
-6.61882e-18
2.95818e-19
-1.6132e-17
8.40901e-19
-2.42982e-17
1.69489e-18
-3.06129e-17
2.66409e-18
-3.52984e-17
3.86101e-18
-3.84151e-17
5.27022e-18
-4.03622e-17
6.76156e-18
-4.13427e-17
8.2784e-18
-4.14438e-17
9.78582e-18
-4.07759e-17
1.12284e-17
-3.94153e-17
1.25659e-17
-3.7471e-17
1.37617e-17
-3.50184e-17
1.47895e-17
-3.21295e-17
1.56245e-17
-2.88839e-17
1.62457e-17
-2.53544e-17
1.66374e-17
-2.16137e-17
1.67921e-17
-1.77276e-17
1.67064e-17
-1.3761e-17
1.63901e-17
-9.76702e-18
1.58562e-17
-5.80433e-18
1.51244e-17
-1.92635e-18
1.42121e-17
1.8114e-18
1.31431e-17
5.36236e-18
1.19394e-17
8.67643e-18
1.06291e-17
1.1715e-17
9.23246e-18
1.44377e-17
7.77637e-18
1.6824e-17
6.27886e-18
1.88614e-17
4.76734e-18
2.05518e-17
3.26136e-18
2.19e-17
1.7955e-18
2.29307e-17
3.91786e-19
2.3663e-17
-9.19093e-19
2.41119e-17
-2.1203e-18
2.43052e-17
-3.1914e-18
2.42877e-17
-4.12304e-18
2.40842e-17
-4.89539e-18
2.37044e-17
-5.50139e-18
2.3184e-17
-5.93467e-18
2.25605e-17
-6.2012e-18
2.18584e-17
-6.30629e-18
2.11061e-17
-6.26111e-18
2.03246e-17
-6.07348e-18
1.95375e-17
-5.75651e-18
1.87606e-17
-5.32564e-18
1.8002e-17
-4.79777e-18
1.72582e-17
-4.17793e-18
1.65229e-17
-3.49455e-18
1.57624e-17
-2.79463e-18
1.49434e-17
-2.08315e-18
1.39958e-17
-1.49428e-18
1.27136e-17
-8.58257e-19
1.12654e-17
-5.46374e-19
9.13971e-18
-2.12487e-19
6.2134e-18
2.67238e-18
-2.5488e-19
-6.31516e-18
-2.46081e-19
-1.60169e-17
-3.07642e-19
-2.41211e-17
-3.7493e-19
-3.04685e-17
-4.66428e-19
-3.52129e-17
-4.3318e-19
-3.85005e-17
-2.67427e-19
-4.05899e-17
-2.13101e-20
-4.16501e-17
2.63099e-19
-4.17827e-17
5.21953e-19
-4.10908e-17
7.40714e-19
-3.96885e-17
8.9931e-19
-3.76814e-17
9.74884e-19
-3.51402e-17
9.48734e-19
-3.21448e-17
8.04253e-19
-2.87781e-17
5.28915e-19
-2.51168e-17
1.15731e-19
-2.1236e-17
-4.41048e-19
-1.72081e-17
-1.13765e-18
-1.30999e-17
-1.96489e-18
-8.97316e-18
-2.90846e-18
-4.89116e-18
-3.95287e-18
-9.09858e-19
-5.08014e-18
2.9148e-18
-6.27211e-18
6.53077e-18
-7.50521e-18
9.89012e-18
-8.7585e-18
1.29513e-17
-1.00103e-17
1.56809e-17
-1.12435e-17
1.80541e-17
-1.24352e-17
2.00603e-17
-1.35694e-17
2.16961e-17
-1.4623e-17
2.29712e-17
-1.55785e-17
2.39029e-17
-1.6414e-17
2.45159e-17
-1.71108e-17
2.48238e-17
-1.76649e-17
2.4878e-17
-1.80516e-17
2.46935e-17
-1.82372e-17
2.42932e-17
-1.82304e-17
2.37234e-17
-1.80325e-17
2.3018e-17
-1.7642e-17
2.22074e-17
-1.70621e-17
2.13242e-17
-1.63043e-17
2.03969e-17
-1.53797e-17
1.94536e-17
-1.43024e-17
1.85183e-17
-1.30897e-17
1.76116e-17
-1.17633e-17
1.67436e-17
-1.034e-17
1.59151e-17
-8.84241e-18
1.51192e-17
-7.3024e-18
1.43396e-17
-5.76188e-18
1.35128e-17
-4.31265e-18
1.25647e-17
-2.9596e-18
1.15113e-17
-1.8772e-18
1.00278e-17
-8.77609e-19
8.0975e-18
-1.88947e-19
5.51251e-18
2.4821e-18
-2.50536e-19
-6.03034e-18
-7.36672e-19
-1.53956e-17
-1.43806e-18
-2.33085e-17
-2.33276e-18
-2.95323e-17
-3.31697e-18
-3.42454e-17
-4.28133e-18
-3.75779e-17
-5.20748e-18
-3.97104e-17
-6.10396e-18
-4.07954e-17
-6.99012e-18
-4.09452e-17
-7.87558e-18
-4.02577e-17
-8.76306e-18
-3.8855e-17
-9.67637e-18
-3.68191e-17
-1.06256e-17
-3.42392e-17
-1.16208e-17
-3.11987e-17
-1.26649e-17
-2.77806e-17
-1.37618e-17
-2.40639e-17
-1.49144e-17
-2.01262e-17
-1.61204e-17
-1.60425e-17
-1.73745e-17
-1.18838e-17
-1.86661e-17
-7.71741e-18
-1.99836e-17
-3.60651e-18
-2.13106e-17
3.88672e-19
-2.26327e-17
4.2109e-18
-2.39306e-17
7.80637e-18
-2.51888e-17
1.11271e-17
-2.63859e-17
1.41329e-17
-2.75062e-17
1.67908e-17
-2.85312e-17
1.90778e-17
-2.94471e-17
2.09783e-17
-3.02355e-17
2.24931e-17
-3.08818e-17
2.36284e-17
-3.13723e-17
2.44078e-17
-3.16905e-17
2.48488e-17
-3.18224e-17
2.49753e-17
-3.17539e-17
2.48316e-17
-3.14752e-17
2.44423e-17
-3.09819e-17
2.38303e-17
-3.02707e-17
2.30477e-17
-2.93418e-17
2.21286e-17
-2.81976e-17
2.11092e-17
-2.68479e-17
2.00233e-17
-2.53039e-17
1.89059e-17
-2.35822e-17
1.77869e-17
-2.16992e-17
1.66943e-17
-1.96759e-17
1.56518e-17
-1.75367e-17
1.4675e-17
-1.53072e-17
1.37658e-17
-1.30106e-17
1.29225e-17
-1.06947e-17
1.21255e-17
-8.42775e-18
1.1337e-17
-6.25628e-18
1.0511e-17
-4.30528e-18
9.50963e-18
-2.61915e-18
8.31137e-18
-1.3245e-18
6.77343e-18
-4.68932e-19
4.59136e-18
2.01034e-18
-3.60793e-19
-5.62664e-18
-1.2186e-18
-1.44431e-17
-2.46344e-18
-2.19829e-17
-4.0209e-18
-2.79396e-17
-5.78338e-18
-3.24938e-17
-7.6389e-18
-3.57509e-17
-9.52509e-18
-3.78525e-17
-1.14294e-17
-3.89282e-17
-1.33418e-17
-3.90812e-17
-1.52437e-17
-3.8409e-17
-1.71349e-17
-3.70174e-17
-1.90139e-17
-3.4992e-17
-2.08826e-17
-3.24246e-17
-2.27393e-17
-2.93946e-17
-2.45842e-17
-2.59878e-17
-2.64126e-17
-2.22847e-17
-2.82215e-17
-1.83639e-17
-3.00031e-17
-1.43039e-17
-3.1751e-17
-1.01761e-17
-3.34535e-17
-6.05184e-18
-3.50979e-17
-1.99516e-18
-3.66698e-17
1.92827e-18
-3.81546e-17
5.66558e-18
-3.95392e-17
9.16008e-18
-4.08083e-17
1.23679e-17
-4.19471e-17
1.52474e-17
-4.29389e-17
1.77681e-17
-4.37699e-17
1.99045e-17
-4.4427e-17
2.16433e-17
-4.48994e-17
2.29806e-17
-4.51759e-17
2.39249e-17
-4.52376e-17
2.44905e-17
-4.50665e-17
2.47032e-17
-4.46797e-17
2.46173e-17
-4.40628e-17
2.42491e-17
-4.32042e-17
2.3621e-17
-4.21063e-17
2.27742e-17
-4.07674e-17
2.17538e-17
-3.91894e-17
2.05999e-17
-3.73806e-17
1.93513e-17
-3.53513e-17
1.8048e-17
-3.3117e-17
1.67265e-17
-3.06958e-17
1.54218e-17
-2.8107e-17
1.41652e-17
-2.53733e-17
1.2984e-17
-2.25238e-17
1.18947e-17
-1.95849e-17
1.09089e-17
-1.65937e-17
1.00266e-17
-1.36088e-17
9.2381e-18
-1.06913e-17
8.5158e-18
-7.9295e-18
7.792e-18
-5.44259e-18
7.03752e-18
-3.31005e-18
6.16529e-18
-1.6445e-18
4.9518e-18
-4.90641e-19
3.43176e-18
1.51858e-18
-4.90305e-19
-5.11426e-18
-1.62522e-18
-1.32058e-17
-3.30626e-18
-2.02061e-17
-5.41851e-18
-2.57736e-17
-7.84976e-18
-3.00606e-17
-1.04641e-17
-3.31537e-17
-1.31763e-17
-3.51646e-17
-1.59475e-17
-3.6194e-17
-1.87427e-17
-3.63336e-17
-2.15276e-17
-3.56785e-17
-2.42822e-17
-3.43164e-17
-2.69944e-17
-3.23355e-17
-2.96564e-17
-2.98189e-17
-3.22568e-17
-2.68503e-17
-3.47877e-17
-2.3511e-17
-3.72421e-17
-1.98829e-17
-3.96105e-17
-1.60453e-17
-4.18837e-17
-1.20783e-17
-4.40495e-17
-8.05465e-18
-4.60955e-17
-4.04631e-18
-4.80101e-17
-1.22259e-19
-4.97805e-17
3.65517e-18
-5.13921e-17
7.2273e-18
-5.28317e-17
1.05476e-17
-5.40905e-17
1.35757e-17
-5.51581e-17
1.62766e-17
-5.60195e-17
1.86124e-17
-5.66636e-17
2.05537e-17
-5.70817e-17
2.20811e-17
-5.72635e-17
2.31905e-17
-5.71968e-17
2.38885e-17
-5.68688e-17
2.41948e-17
-5.62875e-17
2.41561e-17
-5.5452e-17
2.38188e-17
-5.43535e-17
2.31897e-17
-5.2992e-17
2.23021e-17
-5.13701e-17
2.11985e-17
-4.94897e-17
1.99237e-17
-4.73577e-17
1.85207e-17
-4.49832e-17
1.70331e-17
-4.23799e-17
1.55027e-17
-3.95645e-17
1.397e-17
-3.65561e-17
1.2474e-17
-3.33757e-17
1.10502e-17
-3.00501e-17
9.72737e-18
-2.66098e-17
8.53027e-18
-2.30889e-17
7.47222e-18
-1.95262e-17
6.56221e-18
-1.59844e-17
5.79834e-18
-1.25472e-17
5.15468e-18
-9.29604e-18
4.61245e-18
-6.33897e-18
4.12136e-18
-3.88579e-18
3.53614e-18
-1.86006e-18
2.97367e-18
-5.51966e-19
2.02433e-18
9.6148e-19
-5.96066e-19
-4.48222e-18
-1.94141e-18
-1.17492e-17
-3.96852e-18
-1.8066e-17
-6.53554e-18
-2.31437e-17
-9.51506e-18
-2.70696e-17
-1.27549e-17
-2.9927e-17
-1.61488e-17
-3.17952e-17
-1.9632e-17
-3.27473e-17
-2.31503e-17
-3.28642e-17
-2.66582e-17
-3.22235e-17
-3.0126e-17
-3.0906e-17
-3.35266e-17
-2.8994e-17
-3.68407e-17
-2.65636e-17
-4.00526e-17
-2.36969e-17
-4.31468e-17
-2.04741e-17
-4.61109e-17
-1.69753e-17
-4.89317e-17
-1.32811e-17
-5.15973e-17
-9.46704e-18
-5.40923e-17
-5.61035e-18
-5.64056e-17
-1.78279e-18
-5.85236e-17
1.94424e-18
-6.04358e-17
5.5104e-18
-6.21262e-17
8.85963e-18
-6.35863e-17
1.19515e-17
-6.48092e-17
1.47552e-17
-6.57925e-17
1.72364e-17
-6.6521e-17
1.93354e-17
-6.69839e-17
2.10232e-17
-6.71751e-17
2.22882e-17
-6.70946e-17
2.31322e-17
-6.67305e-17
2.35525e-17
-6.60732e-17
2.35705e-17
-6.51282e-17
2.32457e-17
-6.39032e-17
2.26309e-17
-6.23992e-17
2.17263e-17
-6.0617e-17
2.05646e-17
-5.85615e-17
1.91919e-17
-5.62381e-17
1.76531e-17
-5.36557e-17
1.59948e-17
-5.0826e-17
1.42631e-17
-4.7764e-17
1.25031e-17
-4.44881e-17
1.07586e-17
-4.10184e-17
9.07223e-18
-3.7379e-17
7.48125e-18
-3.3596e-17
6.02078e-18
-2.97044e-17
4.71888e-18
-2.57381e-17
3.5968e-18
-2.17409e-17
2.66764e-18
-1.77855e-17
1.93897e-18
-1.39427e-17
1.41694e-18
-1.03143e-17
1.04821e-18
-7.0648e-18
7.95998e-19
-4.22184e-18
7.986e-19
-2.1377e-18
6.34996e-19
-6.8386e-19
5.55216e-19
2.75577e-19
-6.3608e-19
-3.8195e-18
-2.14877e-18
-1.01212e-17
-4.44951e-18
-1.56537e-17
-7.3787e-18
-2.01478e-17
-1.07823e-17
-2.36519e-17
-1.45024e-17
-2.62198e-17
-1.84185e-17
-2.79026e-17
-2.24489e-17
-2.87531e-17
-2.65264e-17
-2.88336e-17
-3.05957e-17
-2.82097e-17
-3.46121e-17
-2.69485e-17
-3.85442e-17
-2.51233e-17
-4.23626e-17
-2.28082e-17
-4.60432e-17
-2.00791e-17
-4.95666e-17
-1.70141e-17
-5.29156e-17
-1.36909e-17
-5.60731e-17
-1.0187e-17
-5.90237e-17
-6.57741e-18
-6.17533e-17
-2.93824e-18
-6.42492e-17
6.58088e-19
-6.65003e-17
4.14429e-18
-6.84917e-17
7.45875e-18
-7.02089e-17
1.0546e-17
-7.16362e-17
1.33659e-17
-7.27787e-17
1.59011e-17
-7.36547e-17
1.8118e-17
-7.42493e-17
1.99269e-17
-7.4545e-17
2.13059e-17
-7.45352e-17
2.22635e-17
-7.42243e-17
2.2814e-17
-7.35983e-17
2.29329e-17
-7.26459e-17
2.26354e-17
-7.13917e-17
2.20191e-17
-6.98547e-17
2.11284e-17
-6.80265e-17
1.99387e-17
-6.59115e-17
1.84959e-17
-6.35171e-17
1.68492e-17
-6.08542e-17
1.50452e-17
-5.79329e-17
1.31323e-17
-5.47664e-17
1.1159e-17
-5.13713e-17
9.17396e-18
-4.77664e-17
7.22343e-18
-4.39742e-17
5.35149e-18
-4.00176e-17
3.60089e-18
-3.59254e-17
2.00879e-18
-3.17307e-17
6.08934e-19
-2.74709e-17
-5.72157e-19
-2.31914e-17
-1.51008e-18
-1.89549e-17
-2.18534e-18
-1.48582e-17
-2.60901e-18
-1.09994e-17
-2.75524e-18
-7.47187e-18
-2.60287e-18
-4.60134e-18
-2.37233e-18
-2.13762e-18
-1.7299e-18
-5.89073e-19
-1.13415e-18
-3.21815e-19
-6.70583e-19
-3.11532e-18
-2.29368e-18
-8.3982e-18
-4.77459e-18
-1.30664e-17
-7.94534e-18
-1.69073e-17
-1.16436e-17
-1.99418e-17
-1.56953e-17
-2.21815e-17
-1.99731e-17
-2.36492e-17
-2.43836e-17
-2.4379e-17
-2.8852e-17
-2.4414e-17
-3.33127e-17
-2.38048e-17
-3.77134e-17
-2.26089e-17
-4.20131e-17
-2.08875e-17
-4.61777e-17
-1.87102e-17
-5.01777e-17
-1.61471e-17
-5.39892e-17
-1.32722e-17
-5.75891e-17
-1.01595e-17
-6.09598e-17
-6.88323e-18
-6.4084e-17
-3.51696e-18
-6.69483e-17
-1.34345e-19
-6.95384e-17
3.1952e-18
-7.18423e-17
6.40707e-18
-7.38437e-17
9.43695e-18
-7.55247e-17
1.22261e-17
-7.68651e-17
1.47267e-17
-7.78889e-17
1.69469e-17
-7.86422e-17
1.88797e-17
-7.91053e-17
2.03749e-17
-7.92334e-17
2.14019e-17
-7.90318e-17
2.20254e-17
-7.8504e-17
2.22636e-17
-7.76417e-17
2.20662e-17
-7.6456e-17
2.14635e-17
-7.49735e-17
2.0562e-17
-7.31924e-17
1.93814e-17
-7.11162e-17
1.79043e-17
-6.87557e-17
1.61847e-17
-6.61217e-17
1.42686e-17
-6.32263e-17
1.22075e-17
-6.00827e-17
1.0049e-17
-5.67044e-17
7.84554e-18
-5.31083e-17
5.64711e-18
-4.93148e-17
3.50173e-18
-4.53452e-17
1.45619e-18
-4.12227e-17
-4.44345e-19
-3.69747e-17
-2.15817e-18
-3.2635e-17
-3.64707e-18
-2.82389e-17
-4.87589e-18
-2.38298e-17
-5.81639e-18
-1.94825e-17
-6.44189e-18
-1.52675e-17
-6.70819e-18
-1.12805e-17
-6.65003e-18
-7.74157e-18
-6.30308e-18
-4.5751e-18
-5.32654e-18
-2.36004e-18
-4.29393e-18
-7.87759e-19
-2.73316e-18
-1.11145e-18
-6.83383e-19
-2.40932e-18
-2.36075e-18
-6.61791e-18
-4.9317e-18
-1.03782e-17
-8.24094e-18
-1.35383e-17
-1.20985e-17
-1.60756e-17
-1.6334e-17
-1.79635e-17
-2.08139e-17
-1.91967e-17
-2.5439e-17
-1.97931e-17
-3.01272e-17
-1.97757e-17
-3.48082e-17
-1.91814e-17
-3.94232e-17
-1.80551e-17
-4.39257e-17
-1.645e-17
-4.82761e-17
-1.44266e-17
-5.24418e-17
-1.20509e-17
-5.63932e-17
-9.38958e-18
-6.01061e-17
-6.51398e-18
-6.356e-17
-3.49433e-18
-6.67382e-17
-4.01902e-19
-6.9625e-17
2.69457e-18
-7.22086e-17
5.72727e-18
-7.44751e-17
8.63214e-18
-7.64132e-17
1.13468e-17
-7.80093e-17
1.38117e-17
-7.92363e-17
1.595e-17
-8.01334e-17
1.78414e-17
-8.07435e-17
1.9478e-17
-8.10421e-17
2.0653e-17
-8.09935e-17
2.13296e-17
-8.05966e-17
2.16155e-17
-7.98567e-17
2.15224e-17
-7.87954e-17
2.1017e-17
-7.74444e-17
2.01327e-17
-7.57936e-17
1.89404e-17
-7.38349e-17
1.74598e-17
-7.15908e-17
1.57065e-17
-6.90765e-17
1.37214e-17
-6.63043e-17
1.15523e-17
-6.3288e-17
9.24945e-18
-6.0041e-17
6.86502e-18
-5.65793e-17
4.45046e-18
-5.29189e-17
2.05668e-18
-4.90798e-17
-2.65738e-19
-4.5083e-17
-2.46803e-18
-4.09502e-17
-4.50244e-18
-3.67064e-17
-6.32337e-18
-3.23828e-17
-7.88738e-18
-2.80145e-17
-9.15566e-18
-2.36438e-17
-1.00875e-17
-1.93235e-17
-1.06433e-17
-1.51453e-17
-1.08167e-17
-1.12222e-17
-1.0537e-17
-7.61606e-18
-9.69938e-18
-4.73188e-18
-8.62491e-18
-2.15226e-18
-6.70316e-18
-5.76478e-19
-4.46853e-18
-1.69647e-18
-7.14775e-19
-1.66587e-18
-2.36633e-18
-4.84027e-18
-4.9527e-18
-7.69445e-18
-8.26886e-18
-1.01634e-17
-1.21546e-17
-1.21859e-17
-1.64291e-17
-1.37105e-17
-2.09536e-17
-1.4704e-17
-2.56277e-17
-1.51614e-17
-3.03674e-17
-1.50892e-17
-3.50981e-17
-1.45096e-17
-3.97588e-17
-1.3457e-17
-4.42985e-17
-1.19753e-17
-4.86755e-17
-1.01175e-17
-5.28523e-17
-7.94229e-18
-5.67974e-17
-5.51175e-18
-6.0485e-17
-2.89135e-18
-6.38935e-17
-1.48689e-19
-6.7004e-17
2.64893e-18
-6.98016e-17
5.43487e-18
-7.22733e-17
8.14523e-18
-7.44096e-17
1.07188e-17
-7.62029e-17
1.30971e-17
-7.76518e-17
1.52202e-17
-7.87623e-17
1.70242e-17
-7.95508e-17
1.85973e-17
-7.99763e-17
1.98787e-17
-8.00437e-17
2.07087e-17
-7.9785e-17
2.10756e-17
-7.92023e-17
2.10468e-17
-7.82904e-17
2.06304e-17
-7.70796e-17
1.98283e-17
-7.55894e-17
1.86705e-17
-7.38136e-17
1.71999e-17
-7.17538e-17
1.5444e-17
-6.94291e-17
1.34311e-17
-6.68541e-17
1.12008e-17
-6.40463e-17
8.80271e-18
-6.10197e-17
6.28491e-18
-5.77899e-17
3.70079e-18
-5.43724e-17
1.10124e-18
-5.07836e-17
-1.46094e-18
-4.70431e-17
-3.93548e-18
-4.31698e-17
-6.26986e-18
-3.91826e-17
-8.41666e-18
-3.5103e-17
-1.03245e-17
-3.09608e-17
-1.19486e-17
-2.67839e-17
-1.32414e-17
-2.26073e-17
-1.41614e-17
-1.84962e-17
-1.46638e-17
-1.45074e-17
-1.46767e-17
-1.07303e-17
-1.42035e-17
-7.40296e-18
-1.32604e-17
-4.331e-18
-1.13577e-17
-2.29897e-18
-9.15261e-18
-7.82808e-19
-5.97733e-18
-2.47976e-18
-6.58413e-19
-9.67166e-19
-2.30071e-18
-3.11193e-18
-4.80752e-18
-5.07675e-18
-8.04338e-18
-6.87578e-18
-1.18327e-17
-8.39916e-18
-1.59999e-17
-9.57018e-18
-2.04134e-17
-1.03266e-17
-2.49761e-17
-1.06455e-17
-2.96029e-17
-1.0519e-17
-3.42184e-17
-9.95634e-18
-3.87602e-17
-8.9808e-18
-4.31763e-17
-7.62729e-18
-4.74231e-17
-5.94074e-18
-5.14616e-17
-3.9735e-18
-5.52583e-17
-1.78255e-18
-5.87865e-17
5.7149e-19
-6.20238e-17
3.02571e-18
-6.49518e-17
5.51639e-18
-6.75562e-17
7.98094e-18
-6.98253e-17
1.03588e-17
-7.17512e-17
1.25916e-17
-7.33301e-17
1.46246e-17
-7.45693e-17
1.64089e-17
-7.54994e-17
1.79077e-17
-7.60861e-17
1.91438e-17
-7.62822e-17
2.00501e-17
-7.6129e-17
2.05481e-17
-7.56701e-17
2.06246e-17
-7.4913e-17
2.03062e-17
-7.38634e-17
1.96027e-17
-7.25384e-17
1.853e-17
-7.09492e-17
1.71161e-17
-6.91018e-17
1.53939e-17
-6.70032e-17
1.3395e-17
-6.46725e-17
1.11545e-17
-6.21252e-17
8.71416e-18
-5.93801e-17
6.12024e-18
-5.64505e-17
3.42328e-18
-5.33551e-17
6.74309e-19
-5.01066e-17
-2.07364e-18
-4.67243e-17
-4.77059e-18
-4.32219e-17
-7.36238e-18
-3.962e-17
-9.79938e-18
-3.59297e-17
-1.20291e-17
-3.2173e-17
-1.40023e-17
-2.83697e-17
-1.56664e-17
-2.45494e-17
-1.69744e-17
-2.07361e-17
-1.78706e-17
-1.69677e-17
-1.83037e-17
-1.33249e-17
-1.82527e-17
-9.9098e-18
-1.75922e-17
-6.71906e-18
-1.61544e-17
-4.24765e-18
-1.43324e-17
-1.8754e-18
-1.12662e-17
-4.65104e-19
-7.55658e-18
-2.95488e-18
-6.51014e-19
-2.99811e-19
-2.1688e-18
-1.46591e-18
-4.5421e-18
-2.62431e-18
-7.57802e-18
-3.79842e-18
-1.11432e-17
-4.84152e-18
-1.50689e-17
-5.67465e-18
-1.92275e-17
-6.20749e-18
-2.35265e-17
-6.3956e-18
-2.78844e-17
-6.21821e-18
-3.22281e-17
-5.67451e-18
-3.64954e-17
-4.77752e-18
-4.06353e-17
-3.55336e-18
-4.46031e-17
-2.04072e-18
-4.83594e-17
-2.83896e-19
-5.18712e-17
1.66373e-18
-5.51101e-17
3.74904e-18
-5.8055e-17
5.91102e-18
-6.06892e-17
8.09343e-18
-6.29987e-17
1.02353e-17
-6.49743e-17
1.22835e-17
-6.6611e-17
1.41801e-17
-6.79109e-17
1.58797e-17
-6.88793e-17
1.73345e-17
-6.95293e-17
1.8519e-17
-6.98343e-17
1.9417e-17
-6.97917e-17
1.99878e-17
-6.94322e-17
2.01812e-17
-6.87895e-17
1.99872e-17
-6.78727e-17
1.94031e-17
-6.66962e-17
1.8449e-17
-6.52736e-17
1.7137e-17
-6.36222e-17
1.55018e-17
-6.17514e-17
1.35653e-17
-5.96764e-17
1.13693e-17
-5.74103e-17
8.94239e-18
-5.4974e-17
6.33662e-18
-5.23814e-17
3.58942e-18
-4.96533e-17
7.59939e-19
-4.68022e-17
-2.10991e-18
-4.38457e-17
-4.96131e-18
-4.07948e-17
-7.75052e-18
-3.76687e-17
-1.04189e-17
-3.44761e-17
-1.29209e-17
-3.12323e-17
-1.52e-17
-2.79467e-17
-1.72099e-17
-2.46412e-17
-1.88919e-17
-2.13284e-17
-2.01956e-17
-1.80298e-17
-2.10646e-17
-1.47889e-17
-2.14549e-17
-1.1638e-17
-2.12601e-17
-8.63254e-18
-2.04601e-17
-6.00679e-18
-1.90584e-17
-3.47027e-18
-1.64144e-17
-1.93212e-18
-1.32666e-17
-7.33187e-19
-8.75371e-18
-3.68824e-18
-5.68332e-19
3.11375e-19
-1.98431e-18
4.39069e-22
-4.12711e-18
-4.01682e-19
-6.88216e-18
-1.01038e-18
-1.01159e-17
-1.62149e-18
-1.36748e-17
-2.14925e-18
-1.7442e-17
-2.47633e-18
-2.13349e-17
-2.54338e-18
-2.52795e-17
-2.31959e-18
-2.92063e-17
-1.79679e-18
-3.30553e-17
-9.77968e-19
-3.67774e-17
1.15694e-19
-4.0328e-17
1.45746e-18
-4.36689e-17
3.00415e-18
-4.67666e-17
4.7145e-18
-4.95958e-17
6.53087e-18
-5.21352e-17
8.40786e-18
-5.43689e-17
1.02846e-17
-5.62849e-17
1.21158e-17
-5.78771e-17
1.38395e-17
-5.91423e-17
1.54171e-17
-6.00856e-17
1.67928e-17
-6.0712e-17
1.79406e-17
-6.10323e-17
1.8817e-17
-6.10364e-17
1.94119e-17
-6.07345e-17
1.96773e-17
-6.01469e-17
1.96009e-17
-5.93038e-17
1.91511e-17
-5.82225e-17
1.8344e-17
-5.69267e-17
1.71724e-17
-5.54303e-17
1.56727e-17
-5.37556e-17
1.38508e-17
-5.19096e-17
1.17567e-17
-4.99144e-17
9.40426e-18
-4.77799e-17
6.85154e-18
-4.55306e-17
4.12297e-18
-4.31778e-17
1.28485e-18
-4.07451e-17
-1.63255e-18
-3.82418e-17
-4.56237e-18
-3.56868e-17
-7.4726e-18
-3.30888e-17
-1.02965e-17
-3.04636e-17
-1.29991e-17
-2.78157e-17
-1.55148e-17
-2.51554e-17
-1.78085e-17
-2.24846e-17
-1.98149e-17
-1.98186e-17
-2.14921e-17
-1.71634e-17
-2.27704e-17
-1.45356e-17
-2.36012e-17
-1.19359e-17
-2.39187e-17
-9.42455e-18
-2.37084e-17
-7.06419e-18
-2.27836e-17
-4.79249e-18
-2.09281e-17
-3.14054e-18
-1.86221e-17
-1.30742e-18
-1.47775e-17
-2.97164e-19
-9.92971e-18
-3.99507e-18
-5.09489e-19
8.22776e-19
-1.73385e-18
1.29008e-18
-3.59772e-18
1.52534e-18
-5.9748e-18
1.37874e-18
-8.76798e-18
1.13746e-18
-1.18459e-17
8.83602e-19
-1.51034e-17
7.35499e-19
-1.84662e-17
7.6974e-19
-2.18697e-17
1.02786e-18
-2.52492e-17
1.52563e-18
-2.85515e-17
2.26329e-18
-3.17264e-17
3.2318e-18
-3.47372e-17
4.40482e-18
-3.75414e-17
5.74999e-18
-4.01134e-17
7.2243e-18
-4.24198e-17
8.78483e-18
-4.44522e-17
1.03831e-17
-4.61858e-17
1.19724e-17
-4.76226e-17
1.35003e-17
-4.87437e-17
1.49245e-17
-4.95669e-17
1.61951e-17
-5.00789e-17
1.72791e-17
-5.03099e-17
1.81339e-17
-5.02448e-17
1.87371e-17
-4.99154e-17
1.90567e-17
-4.93103e-17
1.9074e-17
-4.84803e-17
1.87602e-17
-4.74199e-17
1.81098e-17
-4.61873e-17
1.71133e-17
-4.47726e-17
1.57883e-17
-4.3234e-17
1.41431e-17
-4.15539e-17
1.22089e-17
-3.97863e-17
1.00056e-17
-3.79088e-17
7.5716e-18
-3.59763e-17
4.94289e-18
-3.39696e-17
2.16703e-18
-3.19443e-17
-7.0999e-19
-2.98814e-17
-3.64043e-18
-2.78297e-17
-6.57789e-18
-2.57674e-17
-9.47629e-18
-2.3738e-17
-1.2285e-17
-2.17181e-17
-1.49569e-17
-1.9743e-17
-1.74423e-17
-1.77832e-17
-1.96946e-17
-1.58654e-17
-2.16629e-17
-1.3966e-17
-2.32985e-17
-1.21068e-17
-2.45379e-17
-1.02651e-17
-2.53188e-17
-8.47923e-18
-2.56052e-17
-6.73035e-18
-2.52699e-17
-5.03856e-18
-2.42698e-17
-3.61684e-18
-2.26653e-17
-2.0144e-18
-1.96142e-17
-1.26132e-18
-1.59666e-17
-5.60302e-19
-1.05805e-17
-4.55229e-18
-4.10784e-19
1.24539e-18
-1.4073e-18
2.3458e-18
-2.92122e-18
3.04629e-18
-4.85427e-18
3.29106e-18
-7.12166e-18
3.33135e-18
-9.62575e-18
3.28766e-18
-1.22701e-17
3.2777e-18
-1.49989e-17
3.38658e-18
-1.7749e-17
3.66248e-18
-2.0475e-17
4.12578e-18
-2.31149e-17
4.78206e-18
-2.56408e-17
5.62299e-18
-2.79939e-17
6.63193e-18
-3.0165e-17
7.7819e-18
-3.20979e-17
9.03546e-18
-3.38029e-17
1.035e-17
-3.52222e-17
1.16861e-17
-3.63867e-17
1.30014e-17
-3.72425e-17
1.42535e-17
-3.78418e-17
1.53973e-17
-3.81289e-17
1.63958e-17
-3.81752e-17
1.72116e-17
-3.79258e-17
1.78156e-17
-3.74647e-17
1.81803e-17
-3.67343e-17
1.82829e-17
-3.58308e-17
1.81017e-17
-3.46971e-17
1.76185e-17
-3.3447e-17
1.68211e-17
-3.202e-17
1.5711e-17
-3.05351e-17
1.42958e-17
-2.8926e-17
1.25899e-17
-2.7307e-17
1.06131e-17
-2.56047e-17
8.38714e-18
-2.39289e-17
5.94459e-18
-2.22045e-17
3.32169e-18
-2.05408e-17
5.69163e-19
-1.88662e-17
-2.2678e-18
-1.72874e-17
-5.13794e-18
-1.57291e-17
-8.00729e-18
-1.42853e-17
-1.08251e-17
-1.28802e-17
-1.35519e-17
-1.15973e-17
-1.61326e-17
-1.0361e-17
-1.85268e-17
-9.23816e-18
-2.06822e-17
-8.16086e-18
-2.25658e-17
-7.18454e-18
-2.41222e-17
-6.23292e-18
-2.5307e-17
-5.31572e-18
-2.60587e-17
-4.37423e-18
-2.63074e-17
-3.51997e-18
-2.59785e-17
-2.76194e-18
-2.4978e-17
-1.8827e-18
-2.29613e-17
-1.43235e-18
-2.054e-17
-4.76886e-19
-1.64753e-17
1.06241e-20
-1.11278e-17
-4.5441e-18
-3.02492e-19
1.56209e-18
-1.05202e-18
3.04668e-18
-2.13195e-18
4.09687e-18
-3.56101e-18
4.61378e-18
-5.23028e-18
4.8561e-18