/*--------------------------------*- C++ -*----------------------------------*\
| =========                 |                                                 |
| \\      /  F ield         | OpenFOAM: The Open Source CFD Toolbox           |
|  \\    /   O peration     | Version:  5.0                                   |
|   \\  /    A nd           | Web:      www.OpenFOAM.org                      |
|    \\/     M anipulation  |                                                 |
\*---------------------------------------------------------------------------*/
FoamFile
{
    version     2.0;
    format      ascii;
    class       volScalarField;
    location    "0.2";
    object      nu;
}
// * * * * * * * * * * * * * * * * * * * * * * * * * * * * * * * * * * * * * //

dimensions      [0 2 -1 0 0 0 0];

internalField   nonuniform List<scalar> 
200
(
0.0100006
0.0100006
0.0100006
0.0100006
0.0100006
0.0100006
0.0100006
0.0100006
0.0100006
0.0100006
0.0100166
0.0100166
0.0100166
0.0100166
0.0100166
0.0100166
0.0100166
0.0100166
0.0100166
0.0100166
0.0100759
0.0100759
0.0100759
0.0100759
0.0100759
0.0100759
0.0100759
0.0100759
0.0100759
0.0100759
0.0102049
0.0102049
0.0102049
0.0102049
0.0102049
0.0102049
0.0102049
0.0102049
0.0102049
0.0102049
0.0104259
0.0104259
0.0104259
0.0104259
0.0104259
0.0104259
0.0104259
0.0104259
0.0104259
0.0104259
0.0107561
0.0107561
0.0107561
0.0107561
0.0107561
0.0107561
0.0107561
0.0107561
0.0107561
0.0107561
0.0112066
0.0112066
0.0112066
0.0112066
0.0112066
0.0112066
0.0112066
0.0112066
0.0112066
0.0112066
0.0117814
0.0117814
0.0117814
0.0117814
0.0117814
0.0117814
0.0117814
0.0117814
0.0117814
0.0117814
0.0124775
0.0124774
0.0124775
0.0124774
0.0124775
0.0124774
0.0124775
0.0124774
0.0124775
0.0124774
0.0132846
0.0132844
0.0132845
0.0132845
0.0132845
0.0132845
0.0132845
0.0132845
0.0132845
0.0132845
0.0141854
0.0141852
0.0141854
0.0141853
0.0141853
0.0141853
0.0141853
0.0141853
0.0141853
0.0141853
0.0151568
0.0151566
0.0151568
0.0151566
0.0151567
0.0151566
0.0151567
0.0151567
0.0151567
0.0151567
0.0161705
0.0161701
0.0161703
0.0161702
0.0161703
0.0161702
0.0161703
0.0161702
0.0161702
0.0161702
0.0171942
0.0171937
0.0171941
0.0171938
0.017194
0.0171939
0.017194
0.0171939
0.0171939
0.0171939
0.0181937
0.0181931
0.0181935
0.0181932
0.0181934
0.0181933
0.0181934
0.0181933
0.0181933
0.0181933
0.0191338
0.0191331
0.0191336
0.0191332
0.0191335
0.0191333
0.0191334
0.0191333
0.0191334
0.0191334
0.0199805
0.0199796
0.0199803
0.0199798
0.0199801
0.0199799
0.0199801
0.0199799
0.01998
0.01998
0.0207023
0.0207012
0.0207021
0.0207014
0.0207019
0.0207016
0.0207018
0.0207016
0.0207017
0.0207017
0.0212723
0.0212709
0.021272
0.0212713
0.0212718
0.0212714
0.0212717
0.0212715
0.0212716
0.0212716
0.0216691
0.0216674
0.0216688
0.0216678
0.0216685
0.021668
0.0216683
0.0216681
0.0216683
0.0216682
)
;

boundaryField
{
    top
    {
        type            calculated;
        value           nonuniform List<scalar> 10(0.0218221 0.0218202 0.0218217 0.0218206 0.0218214 0.0218209 0.0218212 0.021821 0.0218211 0.0218211);
    }
    bottom
    {
        type            symmetryPlane;
    }
    inlet
    {
        type            calculated;
        value           nonuniform 0();
    }
    outlet
    {
        type            calculated;
        value           nonuniform List<scalar> 
20
(
0.0100006
0.0100166
0.0100759
0.0102049
0.0104259
0.0107561
0.0112066
0.0117814
0.0124774
0.0132845
0.0141853
0.0151567
0.0161702
0.0171939
0.0181933
0.0191334
0.01998
0.0207017
0.0212716
0.0216682
)
;
    }
    frontAndBack
    {
        type            empty;
    }
    procBoundary1to0
    {
        type            processor;
        value           nonuniform List<scalar> 
20
(
0.0100006
0.0100166
0.0100759
0.0102049
0.0104259
0.0107561
0.0112066
0.0117813
0.0124774
0.0132844
0.0141852
0.0151565
0.01617
0.0171936
0.0181929
0.0191328
0.0199792
0.0207007
0.0212703
0.0216667
)
;
    }
}


// ************************************************************************* //
