/*--------------------------------*- C++ -*----------------------------------*\
| =========                 |                                                 |
| \\      /  F ield         | OpenFOAM: The Open Source CFD Toolbox           |
|  \\    /   O peration     | Version:  5.0                                   |
|   \\  /    A nd           | Web:      www.OpenFOAM.org                      |
|    \\/     M anipulation  |                                                 |
\*---------------------------------------------------------------------------*/
FoamFile
{
    version     2.0;
    format      ascii;
    class       volScalarField;
    location    "0.2";
    object      nu;
}
// * * * * * * * * * * * * * * * * * * * * * * * * * * * * * * * * * * * * * //

dimensions      [0 2 -1 0 0 0 0];

internalField   nonuniform List<scalar> 
25
(
3.61155
7.81826
7.94035
7.999
8.06371
9.3581
9.67117
9.68506
9.69142
9.69879
9.85139
9.83929
9.83958
9.84058
9.84104
9.94494
9.94182
9.94128
9.94134
9.94121
9.97398
9.97269
9.97229
9.97229
9.97217
)
;

boundaryField
{
    top
    {
        type            calculated;
        value           nonuniform List<scalar> 5(9.98102 9.9801 9.97977 9.97977 9.97968);
    }
    bottom
    {
        type            symmetryPlane;
    }
    inlet
    {
        type            calculated;
        value           nonuniform 0();
    }
    outlet
    {
        type            calculated;
        value           nonuniform List<scalar> 5(8.03371 9.69926 9.84107 9.9412 9.97217);
    }
    frontAndBack
    {
        type            empty;
    }
    procBoundary1to0
    {
        type            processor;
        value           nonuniform List<scalar> 5(3.54127 9.36177 9.85256 9.94537 9.97416);
    }
}


// ************************************************************************* //
