/*--------------------------------*- C++ -*----------------------------------*\
| =========                 |                                                 |
| \\      /  F ield         | OpenFOAM: The Open Source CFD Toolbox           |
|  \\    /   O peration     | Version:  5.0                                   |
|   \\  /    A nd           | Web:      www.OpenFOAM.org                      |
|    \\/     M anipulation  |                                                 |
\*---------------------------------------------------------------------------*/
FoamFile
{
    version     2.0;
    format      ascii;
    class       surfaceScalarField;
    location    "0.2";
    object      phi;
}
// * * * * * * * * * * * * * * * * * * * * * * * * * * * * * * * * * * * * * //

dimensions      [0 3 -1 0 0 0 0];

internalField   nonuniform List<scalar> 
85
(
0.000100749
-1.35639e-11
0.000100749
-1.79634e-12
0.000100749
-8.9914e-13
0.000100749
1.77157e-11
4.46745e-11
0.000100749
-2.05662e-11
0.000100749
-1.01442e-11
0.000100749
2.38254e-13
0.000100749
3.70852e-11
8.35237e-11
0.000100749
-2.55778e-11
0.000100749
-1.92356e-11
0.000100749
2.10912e-12
0.000100749
5.57285e-11
1.19691e-10
0.000100749
-2.82563e-11
0.000100749
-2.92791e-11
0.000100749
3.996e-12
0.000100749
7.26305e-11
1.52334e-10
0.000100749
-2.95394e-11
0.000100749
-3.91132e-11
0.000100749
6.31765e-12
0.000100749
8.71786e-11
1.81558e-10
0.000100749
-3.05568e-11
0.000100749
-4.77036e-11
0.000100749
9.39696e-12
0.000100749
9.88462e-11
2.0757e-10
0.000100749
-3.03902e-11
0.000100749
-5.68675e-11
0.000100749
1.1839e-11
0.000100749
1.07333e-10
2.29701e-10
0.000100749
-3.4984e-11
0.000100749
-5.97638e-11
0.000100749
1.64993e-11
0.000100749
1.12149e-10
2.51354e-10
0.000100749
-3.94323e-11
0.000100749
-6.43876e-11
0.000100749
1.75882e-11
0.000100749
1.13038e-10
2.703e-10
0.000100749
0.000100749
0.000100749
0.000100749
)
;

boundaryField
{
    top
    {
        type            calculated;
        value           nonuniform List<scalar> 5(-6.77242e-11 -3.97724e-11 1.30874e-11 1.06795e-10 3.04889e-10);
    }
    bottom
    {
        type            symmetryPlane;
        value           uniform 0;
    }
    inlet
    {
        type            calculated;
        value           nonuniform 0();
    }
    outlet
    {
        type            calculated;
        value           nonuniform List<scalar> 10(0.000100749 0.000100749 0.000100749 0.000100749 0.000100749 0.000100749 0.000100749 0.000100749 0.000100749 0.000100749);
    }
    frontAndBack
    {
        type            empty;
        value           nonuniform 0();
    }
    procBoundary1to0
    {
        type            processor;
        value           nonuniform List<scalar> 10(-0.000100749 -0.000100749 -0.000100749 -0.000100749 -0.000100749 -0.000100749 -0.000100749 -0.000100749 -0.000100749 -0.000100749);
    }
}


// ************************************************************************* //
