/*--------------------------------*- C++ -*----------------------------------*\
| =========                 |                                                 |
| \\      /  F ield         | OpenFOAM: The Open Source CFD Toolbox           |
|  \\    /   O peration     | Version:  5.0                                   |
|   \\  /    A nd           | Web:      www.OpenFOAM.org                      |
|    \\/     M anipulation  |                                                 |
\*---------------------------------------------------------------------------*/
FoamFile
{
    version     2.0;
    format      ascii;
    class       volScalarField;
    location    "0.2";
    object      shearRate;
}
// * * * * * * * * * * * * * * * * * * * * * * * * * * * * * * * * * * * * * //

dimensions      [0 0 -1 0 0 0 0];

internalField   nonuniform List<scalar> 
50
(
3.7549e-06
3.68357e-06
6.51598e-06
6.82816e-06
1.08608e-05
4.74292e-06
4.68195e-06
1.12728e-05
6.52451e-06
1.11203e-05
5.29587e-06
4.90006e-06
1.10115e-05
6.88961e-06
1.07187e-05
5.3013e-06
4.58148e-06
9.87146e-06
6.78517e-06
1.07409e-05
4.60542e-06
2.97223e-06
3.36305e-06
3.82974e-06
1.37788e-05
4.84398e-06
2.72719e-06
3.29527e-06
3.54052e-06
1.27462e-05
8.65329e-06
7.24601e-06
1.39662e-05
8.2936e-06
2.30155e-05
9.0484e-06
8.04334e-06
1.4354e-05
4.59663e-06
1.78839e-05
6.92117e-06
8.00773e-06
2.33973e-05
5.2388e-06
2.05443e-05
4.79414e-06
6.66297e-06
2.63931e-05
1.15029e-05
2.3055e-05
)
;

boundaryField
{
    top
    {
        type            zeroGradient;
    }
    bottom
    {
        type            symmetryPlane;
    }
    inlet
    {
        type            zeroGradient;
    }
    outlet
    {
        type            zeroGradient;
    }
    frontAndBack
    {
        type            empty;
    }
    procBoundary1to0
    {
        type            processor;
        value           nonuniform List<scalar> 10(6.24691e-06 1.07312e-05 9.48562e-06 7.1707e-06 4.52081e-07 1.96173e-06 1.76192e-05 2.04397e-05 2.67453e-05 2.42171e-05);
    }
}


// ************************************************************************* //
