/*--------------------------------*- C++ -*----------------------------------*\
| =========                 |                                                 |
| \\      /  F ield         | OpenFOAM: The Open Source CFD Toolbox           |
|  \\    /   O peration     | Version:  5.0                                   |
|   \\  /    A nd           | Web:      www.OpenFOAM.org                      |
|    \\/     M anipulation  |                                                 |
\*---------------------------------------------------------------------------*/
FoamFile
{
    version     2.0;
    format      ascii;
    class       volVectorField;
    location    "0.2";
    object      U;
}
// * * * * * * * * * * * * * * * * * * * * * * * * * * * * * * * * * * * * * //

dimensions      [0 1 -1 0 0 0 0];

internalField   nonuniform List<vector> 
25
(
(1.00322 2.04881e-08 6.46525e-23)
(1.00322 -7.0795e-09 3.23265e-23)
(1.00322 4.27757e-09 -3.23264e-23)
(1.00322 -3.89234e-09 -4.93528e-29)
(1.00322 1.10833e-09 3.26292e-23)
(0.922907 7.35542e-08 -2.79815e-23)
(0.92291 -2.79398e-08 9.8757e-29)
(0.922909 2.20424e-08 5.59629e-23)
(0.922909 -1.4298e-08 -6.597e-29)
(0.922909 5.34468e-09 -5.6453e-23)
(0.76231 1.10633e-07 2.79819e-23)
(0.762312 -4.34499e-08 2.79813e-23)
(0.762311 2.43024e-08 2.79817e-23)
(0.762312 -1.45172e-08 7.38106e-29)
(0.762311 8.10804e-09 -2.82634e-23)
(0.521485 1.01615e-07 5.59632e-23)
(0.521487 -4.07363e-08 2.79812e-23)
(0.521486 2.26684e-08 1.10198e-28)
(0.521487 -1.24785e-08 -2.79815e-23)
(0.521487 7.21023e-09 2.21912e-29)
(0.200513 3.69003e-08 3.98814e-23)
(0.200514 -1.46784e-08 1.99409e-23)
(0.200514 7.29869e-09 -1.96235e-29)
(0.200514 -3.43368e-09 0)
(0.200514 3.06016e-09 0)
)
;

boundaryField
{
    top
    {
        type            fixedValue;
        value           uniform (0 0 0);
    }
    bottom
    {
        type            symmetryPlane;
    }
    inlet
    {
        type            pressureInletVelocity;
        value           nonuniform 0();
    }
    outlet
    {
        type            inletOutlet;
        inletValue      uniform (1 0 0);
        value           nonuniform List<vector> 5((1.00322 1.10833e-09 3.26292e-23) (0.922909 5.34468e-09 -5.6453e-23) (0.762311 8.10804e-09 -2.82634e-23) (0.521487 7.21023e-09 2.21912e-29) (0.200514 3.06016e-09 0));
    }
    frontAndBack
    {
        type            empty;
    }
    procBoundary1to0
    {
        type            processor;
        value           nonuniform List<vector> 5((1.00323 -4.15292e-08 1.29611e-28) (0.922913 -1.43681e-07 -2.79817e-23) (0.762315 -2.27864e-07 -5.59634e-23) (0.521489 -2.08301e-07 5.59623e-23) (0.200515 -7.78373e-08 3.9882e-23));
    }
}


// ************************************************************************* //
