/*--------------------------------*- C++ -*----------------------------------*\
| =========                 |                                                 |
| \\      /  F ield         | OpenFOAM: The Open Source CFD Toolbox           |
|  \\    /   O peration     | Version:  5.0                                   |
|   \\  /    A nd           | Web:      www.OpenFOAM.org                      |
|    \\/     M anipulation  |                                                 |
\*---------------------------------------------------------------------------*/
FoamFile
{
    version     2.0;
    format      ascii;
    class       volVectorField;
    location    "0.2";
    object      U;
}
// * * * * * * * * * * * * * * * * * * * * * * * * * * * * * * * * * * * * * //

dimensions      [0 1 -1 0 0 0 0];

internalField   nonuniform List<vector> 
50
(
(1.00749 -8.32116e-09 -1.23685e-29)
(1.00749 -2.11464e-09 -2.97189e-29)
(1.00749 1.74834e-09 9.53281e-29)
(1.00749 8.21381e-09 3.58246e-29)
(1.00749 2.41373e-08 -1.20932e-29)
(1.00749 -1.70309e-08 -1.34951e-28)
(1.00749 -4.60237e-09 7.26796e-29)
(1.00749 -1.75107e-09 -8.02787e-29)
(1.00749 2.77358e-08 1.09132e-28)
(1.00749 6.41468e-08 2.78235e-28)
(1.00749 -2.44874e-08 3.33007e-28)
(1.00749 -1.45758e-08 -2.59351e-28)
(1.00749 1.5924e-09 -7.95574e-29)
(1.00749 4.62821e-08 -2.28798e-28)
(1.00749 1.0324e-07 -3.87857e-28)
(1.00749 -2.74912e-08 4.69676e-28)
(1.00749 -2.36308e-08 -3.70583e-28)
(1.00749 2.86403e-09 -1.45886e-30)
(1.00749 6.46546e-08 2.65092e-30)
(1.00749 1.36908e-07 -5.95974e-28)
(1.00749 -2.87184e-08 -1.059e-29)
(1.00749 -3.50115e-08 -1.2101e-29)
(1.00749 4.88003e-09 -7.29606e-30)
(1.00749 8.07635e-08 0)
(1.00749 1.67556e-07 0)
(1.00749 -3.08607e-08 -1.68892e-41)
(1.00749 -4.28661e-08 1.10411e-27)
(1.00749 8.3208e-09 -6.18632e-29)
(1.00749 9.34746e-08 0)
(1.00749 1.95846e-07 0)
(1.00749 -2.76329e-08 9.19287e-28)
(1.00749 -5.53353e-08 1.52877e-27)
(1.00749 1.02456e-08 -1.83639e-28)
(1.00749 1.05245e-07 -5.78543e-28)
(1.00749 2.17117e-07 0)
(1.00749 -3.45357e-08 2.35499e-27)
(1.00749 -5.69194e-08 -9.98639e-28)
(1.00749 1.50379e-08 4.59588e-28)
(1.00749 1.08746e-07 -7.11042e-28)
(1.00749 2.43258e-07 -3.4109e-29)
(1.00749 -4.228e-08 -1.06126e-27)
(1.00749 -5.78771e-08 -9.96618e-28)
(1.00749 1.52449e-08 -2.22136e-28)
(1.00749 1.10509e-07 5.4533e-30)
(1.00749 2.68181e-07 -1.26441e-27)
(1.00749 -5.54989e-08 -5.45913e-28)
(1.00749 -5.07211e-08 5.34284e-29)
(1.00749 1.55761e-08 -3.49041e-28)
(1.00749 1.10785e-07 -3.41915e-29)
(1.00749 2.92205e-07 -7.24395e-28)
)
;

boundaryField
{
    top
    {
        type            zeroGradient;
    }
    bottom
    {
        type            symmetryPlane;
    }
    inlet
    {
        type            pressureInletVelocity;
        value           nonuniform 0();
    }
    outlet
    {
        type            inletOutlet;
        inletValue      uniform (1 0 0);
        value           nonuniform List<vector> 10((1.00749 2.41373e-08 -1.20932e-29) (1.00749 6.41468e-08 2.78235e-28) (1.00749 1.0324e-07 -3.87857e-28) (1.00749 1.36908e-07 -5.95974e-28) (1.00749 1.67556e-07 0) (1.00749 1.95846e-07 0) (1.00749 2.17117e-07 0) (1.00749 2.43258e-07 -3.4109e-29) (1.00749 2.68181e-07 -1.26441e-27) (1.00749 2.92205e-07 -7.24395e-28));
    }
    frontAndBack
    {
        type            empty;
    }
    procBoundary1to0
    {
        type            processor;
        value           nonuniform List<vector> 10((1.00749 5.43127e-09 -3.59233e-29) (1.00749 5.34715e-09 6.75413e-29) (1.00749 1.23738e-08 1.34678e-28) (1.00749 1.44296e-08 -3.71282e-28) (1.00749 1.78522e-08 -4.17409e-28) (1.00749 2.09842e-08 6.60082e-29) (1.00749 2.29764e-08 3.72861e-28) (1.00749 2.83889e-08 -1.93353e-28) (1.00749 3.33957e-08 2.8718e-28) (1.00749 3.62569e-08 1.14065e-28));
    }
}


// ************************************************************************* //
