/*--------------------------------*- C++ -*----------------------------------*\
| =========                 |                                                 |
| \\      /  F ield         | OpenFOAM: The Open Source CFD Toolbox           |
|  \\    /   O peration     | Version:  5.0                                   |
|   \\  /    A nd           | Web:      www.OpenFOAM.org                      |
|    \\/     M anipulation  |                                                 |
\*---------------------------------------------------------------------------*/
FoamFile
{
    version     2.0;
    format      ascii;
    class       volScalarField;
    location    "2.3";
    object      p;
}
// * * * * * * * * * * * * * * * * * * * * * * * * * * * * * * * * * * * * * //

dimensions      [0 2 -2 0 0 0 0];

internalField   nonuniform List<scalar> 
50
(
18.9727
17.0205
15.0388
13.0618
11.0865
9.11541
7.14013
5.07172
3.05363
1.02207
19.0399
17.0224
15.0387
13.0599
11.0521
9.11454
7.10653
5.06786
3.05058
0.983104
19.0909
17.0243
15.0387
13.0584
11.0262
9.12025
7.0877
5.06544
3.04778
0.953601
19.0219
17.0225
15.0387
13.059
11.0608
9.09065
7.09134
5.06619
3.04913
1.01826
18.8038
17.0161
15.0389
13.0621
11.1699
8.99528
7.102
5.06933
3.05619
1.22922
)
;

boundaryField
{
    top
    {
        type            zeroGradient;
    }
    bottom
    {
        type            symmetryPlane;
    }
    inlet
    {
        type            fixedValue;
        value           uniform 20;
    }
    outlet
    {
        type            fixedValue;
        value           uniform 0;
    }
    frontAndBack
    {
        type            empty;
    }
}


// ************************************************************************* //
