/*--------------------------------*- C++ -*----------------------------------*\
| =========                 |                                                 |
| \\      /  F ield         | OpenFOAM: The Open Source CFD Toolbox           |
|  \\    /   O peration     | Version:  5.0                                   |
|   \\  /    A nd           | Web:      www.OpenFOAM.org                      |
|    \\/     M anipulation  |                                                 |
\*---------------------------------------------------------------------------*/
FoamFile
{
    version     2.0;
    format      ascii;
    class       volScalarField;
    location    "2.3";
    object      shearRate;
}
// * * * * * * * * * * * * * * * * * * * * * * * * * * * * * * * * * * * * * //

dimensions      [0 0 -1 0 0 0 0];

internalField   nonuniform List<scalar> 
50
(
5.00831
4.89524
4.90737
4.90858
4.86551
4.89702
3.58705
3.48794
3.43885
3.43277
9.9297
9.81372
9.81979
9.83025
9.75416
9.79883
8.22424
8.09343
8.02968
7.98132
9.77869
9.86727
9.82817
9.85951
9.78591
9.83174
9.78791
9.75408
9.76717
9.64042
9.71536
9.8965
9.8309
9.87499
9.80208
9.85123
10.2485
10.2859
10.3447
10.2089
14.905
14.8055
14.823
14.8292
14.864
14.9115
15.1528
15.2591
15.2324
15.3963
)
;

boundaryField
{
    top
    {
        type            zeroGradient;
    }
    bottom
    {
        type            symmetryPlane;
    }
    inlet
    {
        type            zeroGradient;
    }
    outlet
    {
        type            zeroGradient;
    }
    frontAndBack
    {
        type            empty;
    }
}


// ************************************************************************* //
