/*--------------------------------*- C++ -*----------------------------------*\
| =========                 |                                                 |
| \\      /  F ield         | OpenFOAM: The Open Source CFD Toolbox           |
|  \\    /   O peration     | Version:  5.0                                   |
|   \\  /    A nd           | Web:      www.OpenFOAM.org                      |
|    \\/     M anipulation  |                                                 |
\*---------------------------------------------------------------------------*/
FoamFile
{
    version     2.0;
    format      ascii;
    class       volVectorField;
    location    "2.3";
    object      U;
}
// * * * * * * * * * * * * * * * * * * * * * * * * * * * * * * * * * * * * * //

dimensions      [0 1 -1 0 0 0 0];

internalField   nonuniform List<vector> 
50
(
(0.986426 0.0042249 6.15101e-23)
(0.985525 -7.53862e-06 -4.3975e-23)
(0.98415 1.71032e-06 -4.61725e-23)
(0.986015 5.9207e-05 -4.61323e-23)
(0.981335 -0.00205226 3.29882e-23)
(0.98551 0.00241506 9.08008e-23)
(0.939743 0.000871452 1.29149e-23)
(0.937574 0.000170117 -4.5394e-23)
(0.936218 0.000102601 5.20835e-24)
(0.932962 -0.00212534 8.51538e-24)
(0.786255 0.00347801 -8.95499e-37)
(0.789727 -3.89102e-05 4.68447e-23)
(0.787864 3.19546e-05 5.36093e-26)
(0.789682 0.000249128 -3.73605e-23)
(0.786754 -0.00135383 -4.09477e-23)
(0.789978 0.00554251 -3.46559e-23)
(0.796673 0.00403432 -5.94764e-23)
(0.798067 0.00073697 6.57421e-23)
(0.798675 0.000340188 6.54025e-24)
(0.795691 -0.000823733 -1.48596e-22)
(0.589283 -8.69344e-05 -2.5872e-23)
(0.592994 0.000195818 -2.58063e-26)
(0.591375 3.31306e-05 2.75385e-23)
(0.592821 3.51692e-05 -5.57493e-23)
(0.591193 0.000274365 -5.46203e-23)
(0.59358 0.00254927 4.81473e-23)
(0.6108 0.00306374 4.06526e-23)
(0.613851 0.000478255 3.03828e-23)
(0.615044 2.75503e-05 -1.23614e-24)
(0.613727 -0.000456821 -5.72708e-23)
(0.395173 -0.00265951 -1.44215e-22)
(0.395051 0.000313754 3.13519e-23)
(0.394752 2.29141e-05 -4.12014e-23)
(0.395316 -9.55512e-05 -1.58887e-23)
(0.395342 0.00143918 -5.21721e-23)
(0.396791 -0.000590957 1.23003e-22)
(0.405203 0.00113957 1.18345e-23)
(0.40792 0.000148314 -2.58104e-24)
(0.408003 -0.000237225 -2.14728e-23)
(0.410105 0.00278394 -1.85532e-22)
(0.200843 -0.011307 3.64516e-23)
(0.197147 4.42184e-05 1.57043e-23)
(0.198152 1.6256e-05 -4.94729e-23)
(0.197835 -2.8316e-06 -1.50656e-23)
(0.19916 0.00565636 3.40531e-23)
(0.199624 -0.00516754 7.90501e-25)
(0.200888 0.000632986 1.65038e-23)
(0.202428 0.000111809 1.10215e-24)
(0.201272 -1.56405e-05 0)
(0.20556 0.011512 0)
)
;

boundaryField
{
    top
    {
        type            fixedValue;
        value           uniform (0 0 0);
    }
    bottom
    {
        type            symmetryPlane;
    }
    inlet
    {
        type            pressureInletVelocity;
        value           nonuniform List<vector> 5((0.987291 0 0) (0.785507 0 0) (0.587983 0 0) (0.395002 0 0) (0.202776 0 0));
    }
    outlet
    {
        type            inletOutlet;
        inletValue      uniform (1 0 0);
        value           nonuniform List<vector> 5((0.932962 -0.00212534 8.51538e-24) (0.795691 -0.000823733 -1.48596e-22) (0.613727 -0.000456821 -5.72708e-23) (0.410105 0.00278394 -1.85532e-22) (0.20556 0.011512 0));
    }
    frontAndBack
    {
        type            empty;
    }
}


// ************************************************************************* //
