/*--------------------------------*- C++ -*----------------------------------*\
| =========                 |                                                 |
| \\      /  F ield         | OpenFOAM: The Open Source CFD Toolbox           |
|  \\    /   O peration     | Version:  5.0                                   |
|   \\  /    A nd           | Web:      www.OpenFOAM.org                      |
|    \\/     M anipulation  |                                                 |
\*---------------------------------------------------------------------------*/
FoamFile
{
    version     2.0;
    format      ascii;
    class       volScalarField;
    location    "2.3";
    object      nu;
}
// * * * * * * * * * * * * * * * * * * * * * * * * * * * * * * * * * * * * * //

dimensions      [0 2 -1 0 0 0 0];

internalField   nonuniform List<scalar> 
25
(
8.82298
7.50664
7.31812
7.24717
7.2373
9.83548
9.7294
9.71589
9.70816
9.70278
9.83781
9.83681
9.83534
9.83547
9.82892
9.83952
9.85692
9.85888
9.86043
9.85497
9.95338
9.9551
9.95629
9.95553
9.95697
)
;

boundaryField
{
    top
    {
        type            calculated;
        value           nonuniform List<scalar> 5(9.98053 9.98071 9.98123 9.98073 9.98208);
    }
    bottom
    {
        type            symmetryPlane;
    }
    inlet
    {
        type            calculated;
        value           nonuniform 0();
    }
    outlet
    {
        type            calculated;
        value           nonuniform List<scalar> 5(7.21771 9.70215 9.82879 9.8556 9.95745);
    }
    frontAndBack
    {
        type            empty;
    }
    procBoundary1to0
    {
        type            processor;
        value           nonuniform List<scalar> 5(8.7995 9.83326 9.83556 9.83713 9.95295);
    }
}


// ************************************************************************* //
