/*--------------------------------*- C++ -*----------------------------------*\
| =========                 |                                                 |
| \\      /  F ield         | OpenFOAM: The Open Source CFD Toolbox           |
|  \\    /   O peration     | Version:  5.0                                   |
|   \\  /    A nd           | Web:      www.OpenFOAM.org                      |
|    \\/     M anipulation  |                                                 |
\*---------------------------------------------------------------------------*/
FoamFile
{
    version     2.0;
    format      ascii;
    class       surfaceScalarField;
    location    "205";
    object      phi;
}
// * * * * * * * * * * * * * * * * * * * * * * * * * * * * * * * * * * * * * //

dimensions      [0 3 -1 0 0 0 0];

internalField   nonuniform List<scalar> 
3052
(
-2.40471e-23
-2.97183e-21
3.58997e-21
-4.11187e-21
1.37596e-20
-1.05053e-20
2.35249e-20
-1.02129e-20
3.37938e-20
-1.05624e-20
4.69992e-20
-1.34754e-20
6.1007e-20
-1.42058e-20
7.54631e-20
-1.46472e-20
9.06766e-20
-1.54501e-20
1.06343e-19
-1.58887e-20
1.22104e-19
-1.5967e-20
1.37851e-19
-1.59458e-20
1.53448e-19
-1.57886e-20
1.68704e-19
-1.54368e-20
1.83464e-19
-1.49533e-20
1.97616e-19
-1.43427e-20
2.11014e-19
-1.35883e-20
2.23576e-19
-1.27403e-20
2.35172e-19
-1.17767e-20
2.45743e-19
-1.07344e-20
2.55175e-19
-9.58932e-21
2.63459e-19
-8.41194e-21
2.70481e-19
-7.13654e-21
2.76191e-19
-5.78914e-21
2.80566e-19
-4.44765e-21
2.83687e-19
-3.16906e-21
2.8537e-19
-1.72665e-21
2.85664e-19
-3.04988e-22
2.84454e-19
1.19862e-21
2.8189e-19
2.57268e-21
2.77967e-19
3.95655e-21
2.72844e-19
5.22183e-21
2.6639e-19
6.59468e-21
2.58793e-19
7.78231e-21
2.49999e-19
8.99053e-21
2.40182e-19
1.00405e-20
2.29276e-19
1.11197e-20
2.17498e-19
1.20082e-20
2.04836e-19
1.28876e-20
1.91444e-19
1.36111e-20
1.77376e-19
1.42486e-20
1.62849e-19
1.47029e-20
1.479e-19
1.51067e-20
1.32738e-19
1.53261e-20
1.17473e-19
1.543e-20
1.02317e-19
1.53347e-20
8.73945e-20
1.51081e-20
7.2909e-20
1.46728e-20
5.90366e-20
1.40674e-20
4.60145e-20
1.32166e-20
3.39652e-20
1.2169e-20
2.33205e-20
1.08285e-20
1.43933e-20
9.1997e-21
6.73972e-21
7.69203e-21
2.06527e-21
4.77171e-21
2.07193e-21
2.59345e-21
-6.02655e-21
7.37723e-21
-9.3519e-21
1.14448e-20
-1.62729e-20
1.9941e-20
-1.94883e-20
3.16614e-20
-2.31503e-20
4.32272e-20
-2.5612e-20
5.59062e-20
-2.7384e-20
6.96997e-20
-2.9029e-20
8.38816e-20
-3.01809e-20
9.83129e-20
-3.08769e-20
1.13006e-19
-3.11866e-20
1.27731e-19
-3.1155e-20
1.42262e-19
-3.07844e-20
1.56451e-19
-3.01316e-20
1.70209e-19
-2.91931e-20
1.83371e-19
-2.7998e-20
1.95868e-19
-2.65466e-20
2.07555e-19
-2.48925e-20
2.18378e-19
-2.30116e-20
2.28209e-19
-2.09681e-20
2.37029e-19
-1.87379e-20
2.44706e-19
-1.63967e-20
2.51263e-19
-1.39022e-20
2.5663e-19
-1.1355e-20
2.6083e-19
-8.77137e-21
2.63706e-19
-6.16195e-21
2.65322e-19
-3.38497e-21
2.65552e-19
-5.84777e-22
2.64492e-19
2.27526e-21
2.62071e-19
5.05306e-21
2.58444e-19
7.78566e-21
2.53614e-19
1.03457e-20
2.4773e-19
1.29108e-20
2.40671e-19
1.53207e-20
2.32555e-19
1.76582e-20
2.23356e-19
1.97726e-20
2.1327e-19
2.17928e-20
2.02264e-19
2.35791e-20
1.90503e-19
2.52089e-20
1.78016e-19
2.65837e-20
1.64953e-19
2.77886e-20
1.51335e-19
2.87182e-20
1.37408e-19
2.94501e-20
1.23248e-19
2.98917e-20
1.09035e-19
3.00864e-20
9.48731e-20
2.99514e-20
8.09558e-20
2.94985e-20
6.74541e-20
2.86765e-20
5.45462e-20
2.74745e-20
4.23296e-20
2.5796e-20
3.12217e-20
2.38767e-20
2.12549e-20
2.12947e-20
1.26622e-20
1.79464e-20
6.58909e-21
1.43595e-20
1.90511e-21
9.44532e-21
3.97656e-21
-1.38216e-22
-5.86632e-21
4.49135e-21
-1.52725e-20
1.05817e-20
-2.27623e-20
1.89136e-20
-2.83689e-20
2.82953e-20
-3.27673e-20
3.91674e-20
-3.66744e-20
5.10699e-20
-3.94645e-20
6.37024e-20
-4.17887e-20
7.68227e-20
-4.34634e-20
9.02895e-20
-4.4459e-20
1.03917e-19
-4.49019e-20
1.17511e-19
-4.48579e-20
1.30959e-19
-4.43743e-20
1.44137e-19
-4.34258e-20
1.56882e-19
-4.2069e-20
1.69099e-19
-4.03265e-20
1.80687e-19
-3.82423e-20
1.91542e-19
-3.58175e-20
2.01572e-19
-3.31184e-20
2.10715e-19
-3.01535e-20
2.18894e-19
-2.69704e-20
2.26058e-19
-2.35714e-20
2.32149e-19
-2.00287e-20
2.37148e-19
-1.63542e-20
2.40981e-19
-1.26223e-20
2.43616e-19
-8.78342e-21
2.45061e-19
-4.84283e-21
2.45311e-19
-8.07133e-22
2.44366e-19
3.23264e-21
2.42253e-19
7.2184e-21
2.38997e-19
1.10977e-20
2.34585e-19
1.4866e-20
2.29077e-19
1.85094e-20
2.22518e-19
2.1995e-20
2.14973e-19
2.52953e-20
2.06478e-19
2.84027e-20
1.97101e-19
3.1277e-20
1.86908e-19
3.38957e-20
1.75983e-19
3.62378e-20
1.64395e-19
3.82861e-20
1.52251e-19
3.99961e-20
1.39669e-19
4.13929e-20
1.26753e-19
4.24458e-20
1.13612e-19
4.31285e-20
1.00401e-19
4.3386e-20
8.72591e-20
4.32107e-20
7.43374e-20
4.25573e-20
6.17772e-20
4.13607e-20
4.97821e-20
3.96391e-20
3.85562e-20
3.73735e-20
2.81552e-20
3.42276e-20
1.9043e-20
3.05136e-20
1.14921e-20
2.61322e-20
5.21165e-21
2.03376e-20
1.30482e-21
1.35188e-20
5.28967e-21
7.11547e-22
-6.785e-21
4.6298e-21
-1.93923e-20
9.57917e-21
-2.77227e-20
1.67727e-20
-3.55191e-20
2.5692e-20
-4.16142e-20
3.54515e-20
-4.62885e-20
4.6286e-20
-5.0161e-20
5.78682e-20
-5.32188e-20
6.99176e-20
-5.52812e-20
8.22698e-20
-5.65728e-20
9.4795e-20
-5.72417e-20
1.07323e-19
-5.72281e-20
1.19696e-19
-5.65794e-20
1.31805e-19
-5.53722e-20
1.43541e-19
-5.36369e-20
1.54801e-19
-5.14072e-20
1.65478e-19
-4.87253e-20
1.75488e-19
-4.56383e-20
1.8475e-19
-4.21871e-20
1.93188e-19
-3.84109e-20
2.00739e-19
-3.43459e-20
2.07342e-19
-3.00396e-20
2.12959e-19
-2.55307e-20
2.17547e-19
-2.08568e-20
2.21062e-19
-1.60606e-20
2.23476e-19
-1.11454e-20
2.24814e-19
-6.12428e-21
2.25073e-19
-1.04027e-21
2.24279e-19
4.04601e-21
2.22398e-19
9.08808e-21
2.19438e-19
1.40099e-20
2.15386e-19
1.87813e-20
2.10325e-19
2.3388e-20
2.04268e-19
2.78245e-20
1.97299e-19
3.2042e-20
1.89443e-19
3.60178e-20
1.8079e-19
3.96992e-20
1.71377e-19
4.3074e-20
1.61299e-19
4.60929e-20
1.5063e-19
4.87393e-20
1.39462e-19
5.09921e-20
1.27873e-19
5.28242e-20
1.15981e-19
5.41865e-20
1.03889e-19
5.50614e-20
9.17221e-20
5.54097e-20
7.9603e-20
5.5187e-20
6.76762e-20
5.4335e-20
5.61361e-20
5.28571e-20
4.51386e-20
5.06407e-20
3.47543e-20
4.75439e-20
2.53474e-20
4.37831e-20
1.69774e-20
3.90734e-20
9.80012e-21
3.28109e-20
4.84075e-21
2.57577e-20
1.43214e-21
1.68856e-20
6.72073e-21
1.60946e-21
-8.46527e-21
3.83004e-21
-2.12727e-20
8.94529e-21
-3.26119e-20
1.52755e-20
-4.16006e-20
2.30218e-20
-4.91426e-20
3.18393e-20
-5.50137e-20
4.16248e-20
-5.98146e-20
5.20842e-20
-6.34605e-20
6.30281e-20
-6.59847e-20
7.42994e-20
-6.76411e-20
8.5689e-20
-6.84522e-20
9.70749e-20
-6.84402e-20
1.08355e-19
-6.76836e-20
1.19405e-19
-6.62459e-20
1.30116e-19
-6.41607e-20
1.40395e-19
-6.14938e-20
1.50142e-19
-5.82824e-20
1.59277e-19
-5.45934e-20
1.67729e-19
-5.04646e-20
1.75438e-19
-4.59535e-20
1.82335e-19
-4.11007e-20
1.88371e-19
-3.59591e-20
1.93495e-19
-3.05612e-20
1.97677e-19
-2.49675e-20
2.00877e-19
-1.92041e-20
2.03095e-19
-1.33117e-20
2.04322e-19
-7.31472e-21
2.0458e-19
-1.26646e-21
2.03863e-19
4.78146e-21
2.02179e-19
1.07574e-20
1.99501e-19
1.66092e-20
1.95837e-19
2.23062e-20
1.91207e-19
2.78202e-20
1.85691e-19
3.31204e-20
1.79324e-19
3.81683e-20
1.72169e-19
4.2928e-20
1.64262e-19
4.73572e-20
1.55679e-19
5.14161e-20
1.46469e-19
5.50769e-20
1.36725e-19
5.8294e-20
1.26531e-19
6.10311e-20
1.15976e-19
6.3245e-20
1.05126e-19
6.4913e-20
9.40951e-20
6.59781e-20
8.2986e-20
6.63999e-20
7.19303e-20
6.61345e-20
6.10723e-20
6.51361e-20
5.05507e-20
6.32962e-20
4.05182e-20
6.06111e-20
3.11888e-20
5.70724e-20
2.25878e-20
5.22702e-20
1.50802e-20
4.63145e-20
8.96404e-21
3.945e-20
3.86181e-21
3.05452e-20
8.13143e-22
2.00457e-20
7.54272e-21
7.67007e-22
-9.09048e-21
3.60907e-21
-2.37378e-20
7.91558e-21
-3.65632e-20
1.3695e-20
-4.71626e-20
2.04807e-20
-5.58995e-20
2.83528e-20
-6.28661e-20
3.70696e-20
-6.84624e-20
4.6401e-20
-7.26894e-20
5.61973e-20
-7.56929e-20
6.63018e-20
-7.7666e-20
7.65411e-20
-7.86191e-20
8.68012e-20
-7.8628e-20
9.69682e-20
-7.77741e-20
1.0693e-19
-7.61205e-20
1.16596e-19
-7.37329e-20
1.25862e-19
-7.0671e-20
1.34651e-19
-6.69927e-20
1.42886e-19
-6.27574e-20
1.50509e-19
-5.80199e-20
1.5745e-19
-5.28372e-20
1.63668e-19
-4.72647e-20
1.69107e-19
-4.1352e-20
1.73732e-19
-3.51512e-20
1.77502e-19
-2.87137e-20
1.80402e-19
-2.20823e-20
1.82408e-19
-1.53027e-20
1.83531e-19
-8.41875e-21
1.83769e-19
-1.48184e-21
1.83128e-19
5.44089e-21
1.81601e-19
1.22877e-20
1.79186e-19
1.90023e-20
1.7589e-19
2.55412e-20
1.71751e-19
3.18767e-20
1.66798e-19
3.79694e-20
1.61073e-19
4.37777e-20
1.54621e-19
4.92549e-20
1.47498e-19
5.43628e-20
1.39751e-19
5.90507e-20
1.31453e-19
6.32793e-20
1.2267e-19
6.70058e-20
1.13478e-19
7.01812e-20
1.03944e-19
7.2759e-20
9.41589e-20
7.4692e-20
8.42078e-20
7.59257e-20
7.42007e-20
7.64154e-20
6.42519e-20
7.61023e-20
5.44819e-20
7.49119e-20
4.50305e-20
7.28184e-20
3.60658e-20
6.97195e-20
2.76759e-20
6.53972e-20
2.00866e-20
5.99965e-20
1.33779e-20
5.33429e-20
7.63694e-21
4.4773e-20
3.7177e-21
3.47401e-20
1.1261e-21
2.26739e-20
8.66967e-21
6.59716e-22
-9.64094e-21
3.2964e-21
-2.61207e-20
7.05389e-21
-4.0151e-20
1.20083e-20
-5.20746e-20
1.79521e-20
-6.1848e-20
2.48591e-20
-6.97773e-20
3.25165e-20
-7.61067e-20
4.0745e-20
-8.09151e-20
4.94117e-20
-8.43602e-20
5.83436e-20
-8.65967e-20
6.74123e-20
-8.76872e-20
7.65103e-20
-8.77204e-20
8.55315e-20
-8.67808e-20
9.43823e-20
-8.49468e-20
1.02968e-19
-8.22925e-20
1.11201e-19
-7.88816e-20
1.1901e-19
-7.47849e-20
1.2633e-19
-7.00634e-20
1.331e-19
-6.47837e-20
1.39271e-19
-5.90005e-20
1.44796e-19
-5.278e-20
1.49632e-19
-4.61793e-20
1.53743e-19
-3.92577e-20
1.57098e-19
-3.20644e-20
1.59674e-19
-2.46606e-20
1.61465e-19
-1.70916e-20
1.62469e-19
-9.41802e-21
1.62691e-19
-1.69504e-21
1.62128e-19
6.01427e-21
1.60779e-19
1.3648e-20
1.5864e-19
2.11426e-20
1.55725e-19
2.8454e-20
1.52053e-19
3.55365e-20
1.47655e-19
4.2345e-20
1.42567e-19
4.88345e-20
1.36836e-19
5.49593e-20
1.30504e-19
6.0667e-20
1.23621e-19
6.59112e-20
1.16244e-19
7.06407e-20
1.08438e-19
7.48108e-20
1.00266e-19
7.83659e-20
9.1798e-20
8.12538e-20
8.31063e-20
8.34138e-20
7.42727e-20
8.47944e-20
6.53912e-20
8.53342e-20
5.65654e-20
8.49734e-20
4.79131e-20
8.36462e-20
3.95594e-20
8.12505e-20
3.16171e-20
7.77058e-20
2.42472e-20
7.29979e-20
1.75399e-20
6.68043e-20
1.16757e-20
5.90025e-20
6.90077e-21
4.9828e-20
2.97775e-21
3.84887e-20
6.86681e-22
2.49743e-20
9.35729e-21
8.18093e-22
-1.04182e-20
2.793e-21
-2.8079e-20
6.01125e-21
-4.33536e-20
1.02429e-20
-5.62973e-20
1.54149e-20
-6.70304e-20
2.14127e-20
-7.5785e-20
2.80273e-20
-8.27475e-20
3.51412e-20
-8.80693e-20
4.26555e-20
-9.1902e-20
5.04093e-20
-9.43758e-20
5.82943e-20
-9.5594e-20
6.62073e-20
-9.56512e-20
7.40621e-20
-9.46427e-20
8.17689e-20
-9.26548e-20
8.92445e-20
-8.97668e-20
9.64183e-20
-8.60542e-20
1.03227e-19
-8.15918e-20
1.09609e-19
-7.64487e-20
1.15514e-19
-7.06909e-20
1.20897e-19
-6.43851e-20
1.25715e-19
-5.76011e-20
1.29933e-19
-5.03982e-20
1.33518e-19
-4.28421e-20
1.36444e-19
-3.49947e-20
1.38694e-19
-2.69173e-20
1.40261e-19
-1.86672e-20
1.41142e-19
-1.03036e-20
1.41335e-19
-1.88938e-21
1.40845e-19
6.51254e-21
1.39668e-19
1.48362e-20
1.37809e-19
2.30211e-20
1.35271e-19
3.1008e-20
1.32075e-19
3.87464e-20
1.28246e-19
4.61842e-20
1.23819e-19
5.32737e-20
1.18828e-19
5.99599e-20
1.13313e-19
6.61908e-20
1.07317e-19
7.19154e-20
1.00888e-19
7.70801e-20
9.40817e-20
8.16306e-20
8.69577e-20
8.55097e-20
7.95745e-20
8.86566e-20
7.19971e-20
9.10124e-20
6.42986e-20
9.25147e-20
5.65618e-20
9.30982e-20
4.88855e-20
9.26896e-20
4.13734e-20
9.12056e-20
3.41254e-20
8.85776e-20
2.72582e-20
8.47024e-20
2.08935e-20
7.93818e-20
1.51504e-20
7.26099e-20
1.00697e-20
6.42783e-20
5.73502e-21
5.38622e-20
2.72016e-21
4.15041e-20
7.63302e-22
2.6914e-20
1.01189e-20
6.59691e-22
-1.11061e-20
2.30314e-21
-2.97302e-20
5.01229e-21
-4.60565e-20
8.59731e-21
-5.98826e-20
1.29849e-20
-7.14203e-20
1.80216e-20
-8.08452e-20
2.3589e-20
-8.83531e-20
2.96039e-20
-9.41065e-20
3.59452e-20
-9.82632e-20
4.25016e-20
-1.0095e-19
4.91835e-20
-1.0229e-19
5.59014e-20
-1.02374e-19
6.25702e-20
-1.01312e-19
6.91113e-20
-9.91957e-20
7.5461e-20
-9.61131e-20
8.15577e-20
-9.21454e-20
8.73426e-20
-8.73716e-20
9.27666e-20
-8.18668e-20
9.77853e-20
-7.57053e-20
1.02361e-19
-6.89581e-20
1.06456e-19
-6.1693e-20
1.10041e-19
-5.39815e-20
1.13088e-19
-4.58924e-20
1.15576e-19
-3.74925e-20
1.1749e-19
-2.88438e-20
1.18824e-19
-2.00116e-20
1.19575e-19
-1.10591e-20
1.19743e-19
-2.05155e-21
1.19325e-19
6.9408e-21
1.18324e-19
1.58532e-20
1.16742e-19
2.46171e-20
1.14588e-19
3.3175e-20
1.11874e-19
4.14682e-20
1.08626e-19
4.94412e-20
1.04868e-19
5.70372e-20
1.0063e-19
6.42026e-20
9.59436e-20
7.08802e-20
9.08494e-20
7.70133e-20
8.53877e-20
8.25459e-20
7.96048e-20
8.74197e-20
7.3548e-20
9.15713e-20
6.72715e-20
9.49395e-20
6.08319e-20
9.74592e-20
5.42938e-20
9.90606e-20
4.77302e-20
9.96725e-20
4.12228e-20
9.92206e-20
3.48652e-20
9.76197e-20
2.87472e-20
9.47617e-20
2.29455e-20
9.05333e-20
1.7585e-20
8.48684e-20
1.27461e-20
7.75595e-20
8.48157e-21
6.83754e-20
4.97289e-21
5.7388e-20
2.18686e-21
4.42021e-20
4.931e-22
2.85383e-20
1.06101e-20
4.55126e-22
-1.1556e-20
1.8551e-21
-3.11263e-20
4.07586e-21
-4.82649e-20
7.01587e-21
-6.28149e-20
1.05693e-20
-7.49854e-20
1.46471e-20
-8.49457e-20
1.91868e-20
-9.29057e-20
2.40961e-20
-9.90255e-20
2.92744e-20
-1.0345e-19
3.46393e-20
-1.06317e-19
4.0107e-20
-1.07755e-19
4.56076e-20
-1.07867e-19
5.10693e-20
-1.06765e-19
5.6432e-20
-1.04548e-19
6.16367e-20
-1.01308e-19
6.66357e-20
-9.71324e-20
7.13795e-20
-9.21035e-20
7.58306e-20
-8.63057e-20
7.99486e-20
-7.98125e-20
8.37029e-20
-7.27022e-20
8.70635e-20
-6.50465e-20
9.00059e-20
-5.6924e-20
9.25057e-20
-4.83981e-20
9.45449e-20
-3.9544e-20
9.61134e-20
-3.04263e-20
9.72078e-20
-2.1116e-20
9.7827e-20
-1.16778e-20
9.797e-20
-2.18448e-21
9.76321e-20
7.29425e-21
9.68125e-20
1.66865e-20
9.5512e-20
2.59254e-20
9.37398e-20
3.49467e-20
9.15135e-20
4.36917e-20
8.88479e-20
5.2101e-20
8.57634e-20
6.0115e-20
8.22832e-20
6.76735e-20
7.8438e-20
7.47171e-20
7.42573e-20
8.11873e-20
6.97763e-20
8.70225e-20
6.50304e-20
9.216e-20
6.00614e-20
9.65369e-20
5.49131e-20
1.00086e-19
4.96331e-20
1.02737e-19
4.42754e-20
1.04419e-19
3.89013e-20
1.05055e-19
3.35814e-20
1.04563e-19
2.83923e-20
1.02844e-19
2.3398e-20
9.98042e-20
1.86817e-20
9.53431e-20
1.43203e-20
8.92751e-20
1.0394e-20
8.148e-20
6.94064e-21
7.19267e-20
3.99033e-21
6.02116e-20
1.81677e-21
4.621e-20
5.06353e-22
2.98665e-20
1.11161e-20
3.69944e-22
-1.1928e-20
1.45239e-21
-3.21864e-20
3.15651e-21
-4.99526e-20
5.41645e-21
-6.50685e-20
8.15039e-21
-7.77303e-20
1.13134e-20
-8.81194e-20
1.4835e-20
-9.6435e-20
1.86367e-20
-1.02833e-19
2.26491e-20
-1.07463e-19
2.68083e-20
-1.10475e-19
3.10561e-20
-1.11993e-19
3.53292e-20
-1.12129e-19
3.95701e-20
-1.10995e-19
4.37371e-20
-1.08704e-19
4.77854e-20
-1.05344e-19
5.1672e-20
-1.01008e-19
5.53621e-20
-9.57822e-20
5.88227e-20
-8.97558e-20
6.20273e-20
-8.30064e-20
6.49493e-20
-7.56146e-20
6.7565e-20
-6.76576e-20
6.98518e-20
-5.92106e-20
7.17955e-20
-5.03509e-20
7.33841e-20
-4.11468e-20
7.46095e-20
-3.16675e-20
7.54663e-20
-2.198e-20
7.59521e-20
-1.21575e-20
7.60606e-20
-2.27871e-21
7.5791e-20
7.57694e-21
7.51479e-20
1.73378e-20
7.41331e-20
2.69414e-20
7.27538e-20
3.63242e-20
7.10188e-20
4.54226e-20
6.89412e-20
5.41722e-20
6.65373e-20
6.25095e-20
6.3828e-20
7.03737e-20
6.08347e-20
7.77028e-20
5.75813e-20
8.44349e-20
5.4093e-20
9.05044e-20
5.03998e-20
9.58484e-20
4.65336e-20
1.00399e-19
4.25284e-20
1.04087e-19
3.84225e-20
1.06841e-19
3.42604e-20
1.08584e-19
3.00905e-20
1.09231e-19
2.59635e-20
1.08704e-19
2.19455e-20
1.06905e-19
1.80957e-20
1.03722e-19
1.44455e-20
9.9007e-20
1.10878e-20
9.26874e-20
8.08748e-21
8.46333e-20
5.38451e-21
7.45195e-20
3.1188e-21
6.23222e-20
1.44333e-21
4.79378e-20
3.5115e-22
3.08399e-20
1.14619e-20
2.67421e-22
-1.21844e-20
1.02623e-21
-3.29403e-20
2.23939e-21
-5.11465e-20
3.84256e-21
-6.66649e-20
5.78612e-21
-7.96741e-20
8.03029e-21
-9.03693e-20
1.05226e-20
-9.89348e-20
1.32148e-20
-1.0553e-19
1.60636e-20
-1.10313e-19
1.90169e-20
-1.13422e-19
2.20312e-20
-1.15e-19
2.50642e-20
-1.15155e-19
2.80794e-20
-1.14002e-19
3.10425e-20
-1.11658e-19
3.39217e-20
-1.08213e-19
3.66856e-20
-1.03763e-19
3.93109e-20
-9.84012e-20
4.17721e-20
-9.22111e-20
4.40522e-20
-8.52798e-20
4.61296e-20
-7.7686e-20
4.79902e-20
-6.95153e-20
4.96172e-20
-6.08416e-20
5.10038e-20
-5.1742e-20
5.21368e-20
-4.22844e-20
5.30133e-20
-3.25411e-20
5.36252e-20
-2.25829e-20
5.39704e-20
-1.2493e-20
5.40436e-20
-2.34866e-21
5.38475e-20
7.77305e-21
5.33809e-20
1.78009e-20
5.26518e-20
2.76685e-20
5.16649e-20
3.73095e-20
5.04262e-20
4.66574e-20
4.89448e-20
5.56481e-20
4.72306e-20
6.4218e-20
4.52997e-20
7.22998e-20
4.31659e-20
7.9833e-20
4.08473e-20
8.67493e-20
3.83627e-20
9.29858e-20
3.5733e-20
9.8475e-20
3.29811e-20
1.03148e-19
3.01319e-20
1.06935e-19
2.72127e-20
1.09762e-19
2.42529e-20
1.11544e-19
2.1293e-20
1.12197e-19
1.83704e-20
1.11651e-19
1.55349e-20
1.09778e-19
1.28113e-20
1.06468e-19
1.02535e-20
1.01644e-19
7.90775e-21
9.51256e-20
5.75868e-21
8.67017e-20
3.91349e-21
7.64015e-20
2.29421e-21
6.39582e-20
9.4414e-22
4.89763e-20
1.96036e-22
3.15984e-20
1.16566e-20
1.56735e-22
-1.23502e-20
6.16659e-22
-3.3374e-20
1.34529e-21
-5.18529e-20
2.30052e-21
-6.76038e-20
3.45395e-21
-8.08212e-20
4.77522e-21
-9.1694e-20
6.23977e-21
-1.00404e-19
7.82524e-21
-1.07118e-19
9.50913e-21
-1.11994e-19
1.12623e-20
-1.15169e-19
1.30337e-20
-1.16765e-19
1.48139e-20
-1.16929e-19
1.66013e-20
-1.15783e-19
1.83575e-20
-1.13406e-19
2.00599e-20
-1.09909e-19
2.16941e-20
-1.05393e-19
2.32457e-20
-9.99504e-20
2.47023e-20
-9.3665e-20
2.60507e-20
-8.66243e-20
2.72799e-20
-7.89127e-20
2.83774e-20
-7.06117e-20
2.93406e-20
-6.17971e-20
3.01612e-20
-5.25467e-20
3.08394e-20
-4.29351e-20
3.13669e-20
-3.30371e-20
3.17359e-20
-2.29285e-20
3.19351e-20
-1.26887e-20
3.19665e-20
-2.39345e-21
3.18356e-20
7.88143e-21
3.15513e-20
1.80665e-20
3.11157e-20
2.8092e-20
3.05274e-20
3.78895e-20
2.97871e-20
4.73903e-20
2.89019e-20
5.65267e-20
2.78804e-20
6.52337e-20
2.67312e-20
7.3445e-20
2.54625e-20
8.10976e-20
2.40843e-20
8.81239e-20
2.26088e-20
9.44576e-20
2.10495e-20
1.0003e-19
1.94202e-20
1.04775e-19
1.77371e-20
1.08619e-19
1.60125e-20
1.11487e-19
1.42645e-20
1.13296e-19
1.2511e-20
1.13958e-19
1.07945e-20
1.13379e-19
9.13726e-21
1.11467e-19
7.56785e-21
1.0811e-19
6.08257e-21
1.0314e-19
4.72081e-21
9.64731e-20
3.54535e-21
8.80689e-20
2.37883e-21
7.74973e-20
1.34413e-21
6.46832e-20
7.20445e-22
4.97264e-20
2.02315e-22
3.1939e-20
1.18498e-20
5.08694e-23
-1.23856e-20
2.06688e-22
-3.35192e-20
4.61677e-22
-5.20801e-20
7.7987e-22
-6.78912e-20
1.13626e-21
-8.11688e-20
1.53635e-21
-9.20934e-20
1.97562e-21
-1.00846e-19
2.45343e-21
-1.07595e-19
2.9593e-21
-1.12494e-19
3.49428e-21
-1.15697e-19
4.04954e-21
-1.17315e-19
4.61468e-21
-1.17489e-19
5.16181e-21
-1.16324e-19
5.68913e-21
-1.13927e-19
6.20735e-21
-1.10423e-19
6.70916e-21
-1.05892e-19
7.18596e-21
-1.00425e-19
7.63351e-21
-9.41104e-20
8.04607e-21
-8.70364e-20
8.42166e-21
-7.92863e-20
8.75716e-21
-7.09382e-20
9.05372e-21
-6.2075e-20
9.31332e-21
-5.27745e-20
9.53657e-21
-4.31133e-20
9.71048e-21
-3.31693e-20
9.82731e-21
-2.30225e-20
9.87978e-21
-1.27467e-20
9.87325e-21
-2.41338e-21
9.81406e-21
7.90648e-21
9.71157e-21
1.81433e-20
9.56511e-21
2.8222e-20
9.37313e-21
3.80714e-20
9.13412e-21
4.76204e-20
8.8489e-21
5.68041e-20
8.5228e-21
6.55536e-20
8.15616e-21
7.38077e-20
7.75429e-21
8.14954e-20
7.31938e-21
8.85552e-20
6.85575e-21
9.49159e-20
6.36939e-21
1.00514e-19
5.86624e-21
1.05277e-19
5.352e-21
1.09133e-19
4.83576e-21
1.12005e-19
4.30026e-21
1.13832e-19
3.73978e-21
1.1452e-19
3.22917e-21
1.13909e-19
2.76964e-21
1.11959e-19
2.33167e-21
1.08551e-19
1.93263e-21
1.03604e-19
1.58105e-21
9.69521e-20
1.21821e-21
8.83006e-20
9.4065e-22
7.77419e-20
6.34717e-22
6.51155e-20
1.15501e-22
4.9805e-20
-5.83279e-23
3.21151e-20
1.17899e-20
-3.94513e-23
-1.23536e-20
-1.71926e-22
-3.33436e-20
-3.95581e-22
-5.18039e-20
-7.36357e-22
-6.75248e-20
-1.17016e-21
-8.07188e-20
-1.68878e-21
-9.15713e-20
-2.27075e-21
-1.00264e-19
-2.89243e-21
-1.0697e-19
-3.5404e-21
-1.11839e-19
-4.2209e-21
-1.15011e-19
-4.92413e-21
-1.16605e-19
-5.63368e-21
-1.16774e-19
-6.32202e-21
-1.15629e-19
-6.98446e-21
-1.13261e-19
-7.63239e-21
-1.09771e-19
-8.25723e-21
-1.05264e-19
-8.85116e-21
-9.98275e-20
-9.41047e-21
-9.35505e-20
-9.92874e-21
-8.65153e-20
-1.04045e-20
-7.88071e-20
-1.08287e-20
-7.05064e-20
-1.1198e-20
-6.16927e-20
-1.1503e-20
-5.24406e-20
-1.17508e-20
-4.28354e-20
-1.19392e-20
-3.29529e-20
-1.20795e-20
-2.28734e-20
-1.21689e-20
-1.26644e-20
-1.22078e-20
-2.397e-21
-1.21837e-20
7.86503e-21
-1.20999e-20
1.80437e-20
-1.19532e-20
2.80676e-20
-1.17509e-20
3.78593e-20
-1.14896e-20
4.73539e-20
-1.11762e-20
5.6484e-20
-1.08082e-20
6.5185e-20
-1.03928e-20
7.33885e-20
-9.92834e-21
8.10302e-20
-9.42202e-21
8.80437e-20
-8.87245e-21
9.43662e-20
-8.28899e-21
9.9928e-20
-7.67151e-21
1.04661e-19
-7.03194e-21
1.08493e-19
-6.37655e-21
1.1135e-19
-5.6931e-21
1.13146e-19
-4.96761e-21
1.13798e-19
-4.26432e-21
1.13207e-19
-3.56945e-21
1.11285e-19
-2.87085e-21
1.07928e-19
-2.20825e-21
1.02949e-19
-1.57668e-21
9.62634e-20
-9.51186e-22
8.78877e-20
-6.00514e-22
7.73478e-20
-4.02936e-22
6.44783e-20
9.15271e-25
4.96026e-20
4.6196e-23
3.18513e-20
1.18255e-20
-1.66939e-22
-1.21623e-20
-5.61684e-22
-3.28882e-20
-1.26623e-21
-5.10548e-20
-2.24017e-21
-6.65028e-20
-3.47151e-21
-7.94658e-20
-4.91279e-21
-9.01223e-20
-6.51825e-21
-9.86538e-20
-8.24974e-21
-1.05232e-19
-1.0079e-20
-1.10003e-19
-1.19747e-20
-1.13105e-19
-1.38887e-20
-1.14682e-19
-1.58087e-20
-1.14844e-19
-1.77282e-20
-1.13703e-19
-1.96103e-20
-1.11371e-19
-2.14347e-20
-1.0794e-19
-2.31856e-20
-1.03505e-19
-2.48499e-20
-9.81575e-20
-2.64103e-20
-9.19825e-20
-2.78566e-20
-8.50651e-20
-2.91733e-20
-7.74852e-20
-3.03544e-20
-6.93213e-20
-3.13858e-20
-6.06501e-20
-3.2266e-20
-5.15525e-20
-3.29841e-20
-4.2107e-20
-3.35422e-20
-3.23914e-20
-3.39349e-20
-2.24781e-20
-3.41651e-20
-1.24365e-20
-3.42254e-20
-2.33491e-21
-3.41207e-20
7.75749e-21
-3.38444e-20
1.77672e-20
-3.34065e-20
2.76238e-20
-3.28046e-20
3.7256e-20
-3.20497e-20
4.65953e-20
-3.11377e-20
5.55737e-20
-3.00833e-20
6.41278e-20
-2.88847e-20
7.21903e-20
-2.75602e-20
7.97025e-20
-2.61114e-20
8.65959e-20
-2.4556e-20
9.28083e-20
-2.29003e-20
9.82727e-20
-2.11647e-20
1.02923e-19
-1.93588e-20
1.06686e-19
-1.75042e-20
1.0949e-19
-1.56125e-20
1.11248e-19
-1.37024e-20
1.11879e-19
-1.17973e-20
1.11316e-19
-9.91143e-21
1.09426e-19
-8.08698e-21
1.06087e-19
-6.34157e-21
1.01267e-19
-4.7077e-21
9.47835e-20
-3.30689e-21
8.62938e-20
-2.02302e-21
7.59903e-20
-1.03448e-21
6.37122e-20
-7.03648e-22
4.87129e-20
-2.69332e-22
3.14348e-20
1.15545e-20
-2.22469e-22
-1.19237e-20
-9.40225e-22
-3.20952e-20
-2.11654e-21
-4.97825e-20
-3.75694e-21
-6.48107e-20
-5.78533e-21
-7.74047e-20
-8.14351e-21
-8.77459e-20
-1.07711e-20
-9.60148e-20
-1.36068e-20
-1.02386e-19
-1.65927e-20
-1.07002e-19
-1.96795e-20
-1.10002e-19
-2.28229e-20
-1.11522e-19
-2.59836e-20
-1.11668e-19
-2.9122e-20
-1.1055e-19
-3.22058e-20
-1.08274e-19
-3.51963e-20
-1.04934e-19
-3.80685e-20
-1.00619e-19
-4.07931e-20
-9.54173e-20
-4.33512e-20
-8.94116e-20
-4.57176e-20
-8.26862e-20
-4.78772e-20
-7.53154e-20
-4.98082e-20
-6.73807e-20
-5.14993e-20
-5.89529e-20
-5.29393e-20
-5.01121e-20
-5.41219e-20
-4.09272e-20
-5.50385e-20
-3.14799e-20
-5.56826e-20
-2.18342e-20
-5.60483e-20
-1.20677e-20
-5.61346e-20
-2.23853e-21
-5.59449e-20
7.57648e-21
-5.54857e-20
1.73158e-20
-5.47589e-20
2.68986e-20
-5.37661e-20
3.62659e-20
-5.25139e-20
4.53416e-20
-5.10093e-20
5.40701e-20
-4.92658e-20
6.23806e-20
-4.72951e-20
7.02193e-20
-4.51121e-20
7.75148e-20
-4.27304e-20
8.42128e-20
-4.01716e-20
9.02431e-20
-3.7454e-20
9.55518e-20
-3.46038e-20
1.00064e-19
-3.16429e-20
1.03719e-19
-2.86039e-20
1.06436e-19
-2.55129e-20
1.08145e-19
-2.24062e-20
1.08761e-19
-1.93066e-20
1.08204e-19
-1.6259e-20
1.06376e-19
-1.32884e-20
1.03199e-19
-1.04874e-20
9.84501e-20
-7.8793e-21
9.2062e-20
-5.45902e-21
8.41317e-20
-3.58005e-21
7.40737e-20
-2.15692e-21
6.17123e-20
-7.28194e-22
4.75535e-20
-1.22353e-22
3.05513e-20
1.14172e-20
-3.73153e-22
-1.15147e-20
-1.33567e-21
-3.09911e-20
-3.00812e-21
-4.80308e-20
-5.28235e-21
-6.2456e-20
-8.11014e-21
-7.45266e-20
-1.13936e-20
-8.44381e-20
-1.50439e-20
-9.23466e-20
-1.89772e-20
-9.84332e-20
-2.31182e-20
-1.0284e-19
-2.73982e-20
-1.05701e-19
-3.17589e-20
-1.07139e-19
-3.61432e-20
-1.07265e-19
-4.04951e-20
-1.0618e-19
-4.47675e-20
-1.03987e-19
-4.89129e-20
-1.0077e-19
-5.28922e-20
-9.66217e-20
-5.6668e-20
-9.16209e-20
-6.02125e-20
-8.5854e-20
-6.349e-20
-7.93914e-20
-6.64806e-20
-7.23157e-20
-6.91532e-20
-6.46924e-20
-7.15024e-20
-5.6604e-20
-7.34972e-20
-4.81134e-20
-7.51385e-20
-3.92989e-20
-7.63993e-20
-3.02209e-20
-7.72884e-20
-2.09546e-20
-7.77836e-20
-1.15588e-20
-7.79055e-20
-2.11117e-21
-7.76343e-20
7.32552e-21
-7.6995e-20
1.66776e-20
-7.59697e-20
2.58866e-20
-7.45903e-20
3.48799e-20
-7.28402e-20
4.36005e-20
-7.07566e-20
5.19783e-20
-6.83263e-20
5.99598e-20
-6.55951e-20
6.74782e-20
-6.25551e-20
7.44798e-20
-5.92565e-20
8.09012e-20
-5.5699e-20
8.66874e-20
-5.19369e-20
9.17727e-20
-4.79773e-20
9.60998e-20
-4.3882e-20
9.95984e-20
-3.96641e-20
1.02205e-19
-3.53904e-20
1.03842e-19
-3.10859e-20
1.04437e-19
-2.68077e-20
1.03918e-19
-2.25806e-20
1.02177e-19
-1.85194e-20
9.90747e-20
-1.46368e-20
9.46213e-20
-1.10256e-20
8.86473e-20
-7.87325e-21
8.06913e-20
-5.00865e-21
7.1088e-20
-2.71598e-21
5.97431e-20
-1.53973e-21
4.56773e-20
-5.43409e-22
2.95325e-20
1.08699e-20
-4.34675e-22
-1.10295e-20
-1.74376e-21
-2.95787e-20
-3.88287e-21
-4.57425e-20
-6.83225e-21
-5.94165e-20
-1.04733e-20
-7.08369e-20
-1.46773e-20
-8.0198e-20
-1.93486e-20
-8.76553e-20
-2.43748e-20
-9.33863e-20
-2.96677e-20
-9.75323e-20
-3.51301e-20
-1.00215e-19
-4.07011e-20
-1.01557e-19
-4.62893e-20
-1.0166e-19
-5.18464e-20
-1.00621e-19
-5.72851e-20
-9.85299e-20
-6.25776e-20
-9.54738e-20
-6.76408e-20
-9.1536e-20
-7.24672e-20
-8.67966e-20
-7.69705e-20
-8.13282e-20
-8.11623e-20
-7.52055e-20
-8.49557e-20
-6.84987e-20
-8.83801e-20
-6.12798e-20
-9.13507e-20
-5.36157e-20
-9.39116e-20
-4.55729e-20
-9.59808e-20
-3.72187e-20
-9.76104e-20
-2.86156e-20
-9.87174e-20
-1.98297e-20
-9.93686e-20
-1.09236e-20
-9.9488e-20
-1.96581e-21
-9.91587e-20
6.98281e-21
-9.83078e-20
1.58524e-20
-9.70226e-20
2.45843e-20
-9.52302e-20
3.31108e-20
-9.30206e-20
4.13768e-20
-9.03281e-20
4.9315e-20
-8.72533e-20
5.68721e-20
-8.3738e-20
6.39863e-20
-7.98864e-20
7.06118e-20
-7.56507e-20
7.66835e-20
-7.11379e-20
8.21527e-20
-6.63134e-20
8.69556e-20
-6.12903e-20
9.10431e-20
-5.60461e-20
9.43465e-20
-5.06923e-20
9.68123e-20
-4.52254e-20
9.83646e-20
-3.97502e-20
9.89413e-20
-3.42812e-20
9.8443e-20
-2.89386e-20
9.6802e-20
-2.37247e-20
9.39634e-20
-1.88025e-20
8.9695e-20
-1.42611e-20
8.3872e-20
-1.0032e-20
7.67824e-20
-6.61993e-21
6.77104e-20
-3.95956e-21
5.6356e-20
-1.47754e-21
4.35185e-20
-3.10363e-22
2.80373e-20
1.05414e-20
-5.78178e-22
-1.04121e-20
-2.14772e-21
-2.78354e-20
-4.82047e-21
-4.29591e-20
-8.42558e-21
-5.57418e-20
-1.28665e-20
-6.63517e-20
-1.80084e-20
-7.50467e-20
-2.3696e-20
-8.19658e-20
-2.9817e-20
-8.7271e-20
-3.62439e-20
-9.11019e-20
-4.28901e-20
-9.35797e-20
-4.96411e-20
-9.48092e-20
-5.64323e-20
-9.48877e-20
-6.31573e-20
-9.39031e-20
-6.97682e-20
-9.19444e-20
-7.61654e-20
-8.90864e-20
-8.23218e-20
-8.54099e-20
-8.81472e-20
-8.09815e-20
-9.36312e-20
-7.58791e-20
-9.86834e-20
-7.01646e-20
-1.03309e-19
-6.39082e-20
-1.07429e-19
-5.71723e-20
-1.11057e-19
-5.00215e-20
-1.14127e-19
-4.25191e-20
-1.16657e-19
-3.47241e-20
-1.18591e-19
-2.66958e-20
-1.19955e-19
-1.84954e-20
-1.20704e-19
-1.01785e-20
-1.20877e-19
-1.80929e-21
-1.2044e-19
6.55097e-21
-1.19434e-19
1.484e-20
-1.17837e-19
2.29981e-20
-1.15688e-19
3.09648e-20
-1.12973e-19
3.86799e-20
-1.09735e-19
4.60841e-20
-1.05973e-19
5.31282e-20
-1.01736e-19
5.97596e-20
-9.70366e-20
6.59298e-20
-9.19265e-20
7.15804e-20
-8.64285e-20
7.66707e-20
-8.06035e-20
8.11373e-20
-7.44906e-20
8.49393e-20
-6.81535e-20
8.80163e-20
-6.16455e-20
9.03172e-20
-5.50314e-20
9.17683e-20
-4.83826e-20
9.2306e-20
-4.17688e-20
9.18653e-20
-3.52572e-20
9.03722e-20
-2.89724e-20
8.76557e-20
-2.30287e-20
8.37493e-20
-1.74282e-20
7.86142e-20
-1.25463e-20
7.16141e-20
-8.13625e-21
6.30639e-20
-4.4566e-21
5.32369e-20
-2.38752e-21
4.0729e-20
-8.02699e-22
2.64553e-20
9.73747e-21
-6.76985e-22
-9.69295e-21
-2.57973e-21
-2.57951e-20
-5.77141e-21
-3.97107e-20
-1.00665e-20
-5.14108e-20
-1.5336e-20
-6.11043e-20
-2.14085e-20
-6.90256e-20
-2.81071e-20
-7.53116e-20
-3.53123e-20
-8.01229e-20
-4.28665e-20
-8.35947e-20
-5.06749e-20
-8.58339e-20
-5.85937e-20
-8.69346e-20
-6.6565e-20
-8.69939e-20
-7.44359e-20
-8.60847e-20
-8.21906e-20
-8.42852e-20
-8.96722e-20
-8.166e-20
-9.69057e-20
-7.82921e-20
-1.0371e-19
-7.42353e-20
-1.10154e-19
-6.95626e-20
-1.16043e-19
-6.43227e-20
-1.21493e-19
-5.85943e-20
-1.26281e-19
-5.24184e-20
-1.3057e-19
-4.58755e-20
-1.34114e-19
-3.89949e-20
-1.37121e-19
-3.18585e-20
-1.39325e-19
-2.44932e-20
-1.40969e-19
-1.69778e-20
-1.41776e-19
-9.3355e-21
-1.42031e-19
-1.65763e-21
-1.41441e-19
6.03113e-21
-1.40319e-19
1.36363e-20
-1.38366e-19
2.11348e-20
-1.35913e-19
2.84359e-20
-1.32656e-19
3.55201e-20
-1.28939e-19
4.22963e-20
-1.24454e-19
4.87533e-20
-1.19564e-19
5.48108e-20
-1.13979e-19
6.04612e-20
-1.08063e-19
6.56348e-20
-1.0155e-19
7.02971e-20
-9.47941e-20
7.43783e-20
-8.75563e-20
7.78613e-20
-8.01897e-20
8.06797e-20
-7.24955e-20
8.2794e-20
-6.48058e-20
8.41321e-20
-5.69581e-20
8.46452e-20
-4.92515e-20
8.42462e-20
-4.16001e-20
8.28592e-20
-3.42734e-20
8.04715e-20
-2.7194e-20
7.69233e-20
-2.07607e-20
7.1962e-20
-1.48005e-20
6.59388e-20
-9.75107e-21
5.84309e-20
-5.85411e-21
4.86563e-20
-2.29151e-21
3.76843e-20
-4.48174e-22
2.44056e-20
9.28076e-21
-7.40562e-22
-8.88961e-21
-3.0538e-21
-2.34488e-20
-6.7498e-21
-3.59748e-20
-1.177e-20
-4.64287e-20
-1.78664e-20
-5.50741e-20
-2.48635e-20
-6.20711e-20
-3.25978e-20
-6.76456e-20
-4.08561e-20
-7.18988e-20
-4.95483e-20
-7.49663e-20
-5.84697e-20
-7.69317e-20
-6.75742e-20
-7.79093e-20
-7.66478e-20
-7.79363e-20
-8.5704e-20
-7.71274e-20
-9.45117e-20
-7.54969e-20
-1.03138e-19
-7.31722e-20
-1.1132e-19
-7.01358e-20
-1.19191e-19
-6.65304e-20