/*--------------------------------*- C++ -*----------------------------------*\
| =========                 |                                                 |
| \\      /  F ield         | OpenFOAM: The Open Source CFD Toolbox           |
|  \\    /   O peration     | Version:  5.0                                   |
|   \\  /    A nd           | Web:      www.OpenFOAM.org                      |
|    \\/     M anipulation  |                                                 |
\*---------------------------------------------------------------------------*/
FoamFile
{
    version     2.0;
    format      ascii;
    class       surfaceScalarField;
    location    "409";
    object      phi;
}
// * * * * * * * * * * * * * * * * * * * * * * * * * * * * * * * * * * * * * //

dimensions      [0 3 -1 0 0 0 0];

internalField   nonuniform List<scalar> 
3052
(
1.14801e-24
-1.56736e-24
4.46462e-24
-3.32396e-24
9.35874e-24
-4.90052e-24
1.54519e-23
-6.09887e-24
2.25519e-23
-7.10523e-24
3.05279e-23
-7.98095e-24
3.91655e-23
-8.64226e-24
4.83153e-23
-9.15436e-24
5.78487e-23
-9.53774e-24
6.76306e-23
-9.78606e-24
7.75368e-23
-9.91012e-24
8.74572e-23
-9.92417e-24
9.72888e-23
-9.83529e-24
1.06933e-22
-9.64743e-24
1.16299e-22
-9.36958e-24
1.25305e-22
-9.00891e-24
1.33873e-22
-8.57086e-24
1.41933e-22
-8.06254e-24
1.49421e-22
-7.49013e-24
1.56279e-22
-6.86047e-24
1.62456e-22
-6.17914e-24
1.67908e-22
-5.45291e-24
1.72594e-22
-4.68792e-24
1.76466e-22
-3.87367e-24
1.79524e-22
-3.0583e-24
1.81763e-22
-2.23981e-24
1.83122e-22
-1.3602e-24
1.83576e-22
-4.53593e-25
1.83135e-22
4.41519e-25
1.81788e-22
1.3475e-24
1.79562e-22
2.22813e-24
1.76516e-22
3.04711e-24
1.72655e-22
3.86327e-24
1.67979e-22
4.6777e-24
1.62538e-22
5.44309e-24
1.56372e-22
6.16917e-24
1.49522e-22
6.85251e-24
1.42043e-22
7.48191e-24
1.3399e-22
8.05583e-24
1.25428e-22
8.56516e-24
1.16428e-22
9.00397e-24
1.07067e-22
9.36484e-24
9.74258e-23
9.64447e-24
8.75971e-23
9.83259e-24
7.7677e-23
9.92411e-24
6.77709e-23
9.91044e-24
5.79907e-23
9.78454e-24
4.84581e-23
9.53729e-24
3.93015e-23
9.16165e-24
3.06632e-23
8.64307e-24
2.26987e-23
7.96977e-24
1.55765e-23
7.12777e-24
9.47949e-24
6.10249e-24
4.63009e-24
4.85533e-24
1.38656e-24
3.24831e-24
1.38724e-24
1.04733e-24
-2.62186e-24
3.9861e-24
-6.28331e-24
8.36251e-24
-9.29538e-24
1.39849e-23
-1.17382e-23
2.06186e-23
-1.37547e-23
2.80114e-23
-1.53887e-23
3.60439e-23
-1.66893e-23
4.45733e-23
-1.76976e-23
5.34504e-23
-1.84281e-23
6.25567e-23
-1.8905e-23
7.17839e-23
-1.91494e-23
8.10245e-23
-1.91762e-23
9.01783e-23
-1.89999e-23
9.91566e-23
-1.86361e-23
1.07876e-22
-1.80988e-23
1.16258e-22
-1.74e-23
1.24232e-22
-1.65527e-23
1.31731e-22
-1.557e-23
1.38698e-22
-1.44633e-23
1.45076e-22
-1.32449e-23
1.50818e-22
-1.19266e-23
1.55881e-22
-1.05207e-23
1.60228e-22
-9.03866e-24
1.63843e-22
-7.49252e-24
1.66708e-22
-5.92549e-24
1.68784e-22
-4.31768e-24
1.70053e-22
-2.62952e-24
1.70486e-22
-8.85705e-25
1.70065e-22
8.64106e-25
1.68807e-22
2.60871e-24
1.66741e-22
4.29829e-24
1.63887e-22
5.90641e-24
1.60283e-22
7.47369e-24
1.55946e-22
9.02051e-24
1.50893e-22
1.05041e-23
1.45159e-22
1.19107e-23
1.3879e-22
1.32306e-23
1.31831e-22
1.445e-23
1.24339e-22
1.55584e-23
1.16372e-22
1.65425e-23
1.07995e-22
1.73915e-23
9.92793e-23
1.80918e-23
9.03042e-23
1.86315e-23
8.11526e-23
1.89965e-23
7.19154e-23
1.91743e-23
6.26898e-23
1.91495e-23
5.35814e-23
1.89073e-23
4.47035e-23
1.84303e-23
3.61801e-23
1.77e-23
2.81454e-23
1.66945e-23
2.07414e-23
1.53906e-23
1.41345e-23
1.37513e-23
8.52366e-24
1.17311e-23
4.13255e-24
9.26165e-24
1.17738e-24
6.22005e-24
2.56545e-24
8.85258e-25
-3.51362e-24
3.44816e-24
-8.86165e-24
7.4089e-24
-1.32705e-23
1.25367e-23
-1.68796e-23
1.85912e-23
-1.98224e-23
2.54189e-23
-2.22291e-23
3.28501e-23
-2.41325e-23
4.07372e-23
-2.55963e-23
4.89581e-23
-2.66601e-23
5.73976e-23
-2.7355e-23
6.59465e-23
-2.77081e-23
7.45057e-23
-2.77449e-23
8.29868e-23
-2.74899e-23
9.13047e-23
-2.69622e-23
9.93803e-23
-2.61821e-23
1.07142e-22
-2.51693e-23
1.14526e-22
-2.39426e-23
1.21469e-22
-2.25189e-23
1.27917e-22
-2.09168e-23
1.33821e-22
-1.91535e-23
1.39137e-22
-1.72464e-23
1.43825e-22
-1.52126e-23
1.47855e-22
-1.30709e-23
1.51203e-22
-1.08424e-23
1.5383e-22
-8.55403e-24
1.55711e-22
-6.19863e-24
1.56845e-22
-3.7639e-24
1.5723e-22
-1.26968e-24
1.56854e-22
1.24128e-24
1.5573e-22
3.7358e-24
1.53859e-22
6.1715e-24
1.51242e-22
8.52796e-24
1.47902e-22
1.08175e-23
1.43881e-22
1.30468e-23
1.39201e-22
1.51898e-23
1.33893e-22
1.72251e-23
1.27996e-22
1.91341e-23
1.21554e-22
2.08993e-23
1.14617e-22
2.25034e-23
1.07239e-22
2.39293e-23
9.94809e-23
2.51583e-23
9.14088e-23
2.61733e-23
8.30944e-23
2.69558e-23
7.46149e-23
2.74865e-23
6.60557e-23
2.77445e-23
5.75072e-23
2.77097e-23
4.9068e-23
2.73584e-23
4.08457e-23
2.66653e-23
3.29559e-23
2.56041e-23
2.5523e-23
2.41409e-23
1.8696e-23
2.22318e-23
1.26308e-23
1.98316e-23
7.50274e-24
1.68727e-23
3.52874e-24
1.32545e-23
9.49194e-25
8.8089e-24
3.51535e-24
8.00797e-25
-4.31794e-24
3.03913e-24
-1.11114e-23
6.55856e-24
-1.68009e-23
1.11706e-23
-2.15025e-23
1.66878e-23
-2.53499e-23
2.29138e-23
-2.84651e-23
2.97136e-23
-3.0942e-23
3.69516e-23
-3.28434e-23
4.45035e-23
-3.42206e-23
5.22601e-23
-3.51197e-23
6.01226e-23
-3.55783e-23
6.7998e-23
-3.56276e-23
7.58e-23
-3.52986e-23
8.34513e-23
-3.46198e-23
9.08802e-23
-3.36168e-23
9.80204e-23
-3.23146e-23
1.0481e-22
-3.07372e-23
1.11195e-22
-2.89081e-23
1.17125e-22
-2.68499e-23
1.22553e-22
-2.45851e-23
1.2744e-22
-2.21361e-23
1.31751e-22
-1.95256e-23
1.35455e-22
-1.67763e-23
1.38523e-22
-1.39118e-23
1.40924e-22
-1.09546e-23
1.42638e-22
-7.91254e-24
1.43665e-22
-4.79105e-24
1.44011e-22
-1.6144e-24
1.43673e-22
1.57988e-24
1.42653e-22
4.75741e-24
1.40947e-22
7.87995e-24
1.38554e-22
1.09232e-23
1.35493e-22
1.38811e-23
1.31796e-22
1.67473e-23
1.27492e-22
1.94982e-23
1.2261e-22
2.21109e-23
1.17188e-22
2.45617e-23
1.11263e-22
2.68291e-23
1.04883e-22
2.88896e-23
9.80972e-23
3.07215e-23
9.09607e-23
3.23018e-23
8.35341e-23
3.36074e-23
7.58844e-23
3.46134e-23
6.80836e-23
3.52957e-23
6.02094e-23
3.56278e-23
5.23468e-23
3.55815e-23
4.45884e-23
3.51269e-23
3.70334e-23
3.42313e-23
2.97934e-23
3.28547e-23
2.29925e-23
3.0954e-23
1.6757e-23
2.84798e-23
1.12364e-23
2.53635e-23
6.6165e-24
2.15057e-23
3.07934e-24
1.68003e-23
8.20161e-25
1.10816e-23
4.3361e-24
7.12408e-25
-5.03389e-24
2.66015e-24
-1.3067e-23
5.79906e-24
-1.9948e-23
9.91528e-24
-2.56268e-23
1.48636e-23
-3.03064e-23
2.04878e-23
-3.40973e-23
2.6649e-23
-3.71108e-23
3.32201e-23
-3.94217e-23
4.00885e-23
-4.10959e-23
4.7152e-23
-4.21896e-23
5.43143e-23
-4.27467e-23
6.14909e-23
-4.28097e-23
6.86037e-23
-4.24166e-23
7.558e-23
-4.16007e-23
8.23532e-23
-4.03941e-23
8.88627e-23
-3.8828e-23
9.50527e-23
-3.69306e-23
1.00873e-22
-3.47311e-23
1.06277e-22
-3.22563e-23
1.11223e-22
-2.95339e-23
1.15676e-22
-2.65903e-23
1.19602e-22
-2.34527e-23
1.22972e-22
-2.0147e-23
1.2576e-22
-1.67002e-23
1.27941e-22
-1.31361e-23
1.29502e-22
-9.47297e-24
1.30439e-22
-5.72743e-24
1.30753e-22
-1.92799e-24
1.30444e-22
1.88985e-24
1.29513e-22
5.68983e-24
1.27958e-22
9.43622e-24
1.25783e-22
1.31007e-23
1.23e-22
1.66662e-23
1.19635e-22
2.01147e-23
1.15714e-22
2.3422e-23
1.11266e-22
2.65619e-23
1.06323e-22
2.9508e-23
1.00923e-22
3.22331e-23
9.51064e-23
3.47109e-23
8.89191e-23
3.69139e-23
8.2412e-23
3.88145e-23
7.56412e-23
4.03842e-23
6.86663e-23
4.15948e-23
6.15544e-23
4.24146e-23
5.43775e-23
4.28121e-23
4.72141e-23
4.27529e-23
4.01496e-23
4.21996e-23
3.32802e-23
4.11093e-23
2.6707e-23
3.94381e-23
2.0539e-23
3.71318e-23
1.49096e-23
3.41187e-23
9.96125e-24
3.03219e-23
5.82719e-24
2.56482e-23
2.68418e-24
1.99584e-23
6.96899e-25
1.30736e-23
5.03345e-24
5.99854e-25
-5.63507e-24
2.33175e-24
-1.48054e-23
5.07877e-24
-2.27015e-23
8.72493e-24
-2.92795e-23
1.31212e-23
-3.47093e-23
1.81399e-23
-3.91224e-23
2.36531e-23
-4.26303e-23
2.9547e-23
-4.53214e-23
3.57185e-23
-4.7273e-23
4.2072e-23
-4.85484e-23
4.85208e-23
-4.92003e-23
5.49865e-23
-4.92798e-23
6.13965e-23
-4.88305e-23
6.76842e-23
-4.78921e-23
7.37898e-23
-4.6503e-23
7.96577e-23
-4.46987e-23
8.52375e-23
-4.2513e-23
9.04832e-23
-3.9979e-23
9.53535e-23
-3.71284e-23
9.98106e-23
-3.39926e-23
1.03822e-22
-3.06025e-23
1.07356e-22
-2.69884e-23
1.10389e-22
-2.31805e-23
1.12897e-22
-1.92081e-23
1.1486e-22
-1.50991e-23
1.16266e-22
-1.08785e-23
1.17111e-22
-6.57183e-24
1.17394e-22
-2.21018e-24
1.17115e-22
2.17014e-24
1.16274e-22
6.53221e-24
1.14871e-22
1.08399e-23
1.12912e-22
1.50616e-23
1.10408e-22
1.9172e-23
1.07378e-22
2.31461e-23
1.03847e-22
2.69561e-23
9.98385e-23
3.05725e-23
9.5384e-23
3.39654e-23
9.05162e-23
3.71041e-23
8.52728e-23
3.9958e-23
7.9695e-23
4.24957e-23
7.38289e-23
4.46852e-23
6.77244e-23
4.64937e-23
6.14374e-23
4.78871e-23
5.50281e-23
4.88297e-23
4.85624e-23
4.9284e-23
4.21129e-23
4.92089e-23
3.57591e-23
4.85605e-23
2.95852e-23
4.72911e-23
2.36875e-23
4.53434e-23
1.81756e-23
4.26521e-23
1.31549e-23
3.91481e-23
8.74518e-24
3.47394e-23
5.09881e-24
2.93035e-23
2.34705e-24
2.27135e-23
6.17092e-25
1.48139e-23
5.65092e-24
5.225e-25
-6.1601e-24
2.02077e-24
-1.63089e-23
4.41055e-24
-2.50968e-23
7.59271e-24
-3.24673e-23
1.14463e-23
-3.85685e-23
1.58583e-23
-4.35398e-23
2.07196e-23
-4.7497e-23
2.59295e-23
-5.05364e-23
3.13934e-23
-5.27417e-23
3.70247e-23
-5.41841e-23
4.27464e-23
-5.49261e-23
4.84864e-23
-5.50237e-23
5.41789e-23
-5.45265e-23
5.97649e-23
-5.34811e-23
6.51898e-23
-5.19306e-23
7.04037e-23
-4.99151e-23
7.53616e-23
-4.74731e-23
8.00224e-23
-4.46416e-23
8.43491e-23
-4.14567e-23
8.83083e-23
-3.79532e-23
9.18703e-23
-3.41655e-23
9.50087e-23
-3.01276e-23
9.77004e-23
-2.58727e-23
9.99255e-23
-2.14334e-23
1.01668e-22
-1.68415e-23
1.02917e-22
-1.21273e-23
1.03668e-22
-7.32221e-24
1.03919e-22
-2.46066e-24
1.0367e-22
2.42018e-24
1.02921e-22
7.28225e-24
1.01674e-22
1.20882e-23
9.99335e-23
1.68035e-23
9.77102e-23
2.13969e-23
9.50202e-23
2.5838e-23
9.18834e-23
3.0095e-23
8.83229e-23
3.41354e-23
8.43652e-23
3.79258e-23
8.00398e-23
4.14325e-23
7.53801e-23
4.46209e-23
7.04234e-23
4.74561e-23
6.52104e-23
4.99022e-23
5.97864e-23
5.19221e-23
5.42011e-23
5.34771e-23
4.85087e-23
5.45271e-23
4.27691e-23
5.50289e-23
3.70472e-23
5.49366e-23
3.14143e-23
5.41995e-23
2.59505e-23
5.2761e-23
2.07413e-23
5.05597e-23
1.58749e-23
4.75257e-23
1.14595e-23
4.35703e-23
7.60945e-24
3.85958e-23
4.42323e-24
3.24951e-23
2.02259e-24
2.5126e-23
5.21269e-25
1.63166e-23
6.17247e-24
4.49934e-25
-6.61087e-24
1.72373e-24
-1.75879e-23
3.77345e-24
-2.71515e-23
6.5043e-24
-3.52029e-23
9.82391e-24
-4.18929e-23
1.36356e-23
-4.73562e-23
1.7845e-23
-5.17109e-23
2.23644e-23
-5.50602e-23
2.71119e-23
-5.74933e-23
3.20111e-23
-5.90873e-23
3.69933e-23
-5.99119e-23
4.19943e-23
-6.00279e-23
4.69564e-23
-5.94916e-23
5.18272e-23
-5.83545e-23
5.65582e-23
-5.6664e-23
6.11057e-23
-5.44647e-23
6.543e-23
-5.17993e-23
6.94951e-23
-4.87083e-23
7.32684e-23
-4.52313e-23
7.67207e-23
-4.14066e-23
7.98261e-23
-3.72719e-23
8.25617e-23
-3.28638e-23
8.49073e-23
-2.82188e-23
8.68463e-23
-2.33726e-23
8.83651e-23
-1.83603e-23
8.94548e-23
-1.32167e-23
9.01102e-23
-7.97711e-24
9.03289e-23
-2.6787e-24
9.01105e-23
2.63954e-24
8.94555e-23
7.9383e-24
8.83663e-23
1.31787e-23
8.68478e-23
1.83234e-23
8.49092e-23
2.33371e-23
8.2564e-23
2.81851e-23
7.98288e-23
3.28322e-23
7.67238e-23
3.72427e-23
7.32719e-23
4.13803e-23
6.9499e-23
4.52081e-23
6.54343e-23
4.86886e-23
6.11104e-23
5.17834e-23
5.65632e-23
5.44529e-23
5.18327e-23
5.66564e-23
4.69623e-23
5.83515e-23
4.20005e-23
5.94933e-23
3.69995e-23
6.00346e-23
3.20176e-23
5.99233e-23
2.71189e-23
5.91033e-23
2.23713e-23
5.75144e-23
1.78505e-23
5.50861e-23
1.36433e-23
5.17386e-23
9.83304e-24
4.73864e-23
6.50728e-24
4.19273e-23
3.77543e-24
3.52329e-23
1.72935e-24
2.7172e-23
4.51794e-25
1.76022e-23
6.6245e-24
3.73509e-25
-6.98665e-24
1.44141e-24
-1.86597e-23
3.15858e-24
-2.88727e-23
5.45245e-24
-3.75008e-23
8.24713e-24
-4.46915e-23
1.14623e-23
-5.05752e-23
1.50207e-23
-5.52729e-23
1.88476e-23
-5.88907e-23
2.28725e-23
-6.15216e-23
2.70307e-23
-6.32487e-23
3.12631e-23
-6.41472e-23
3.55142e-23
-6.42816e-23
3.97339e-23
-6.37136e-23
4.38771e-23
-6.24999e-23
4.79024e-23
-6.06912e-23
5.1772e-23
-5.83361e-23
5.54517e-23
-5.54805e-23
5.89107e-23
-5.21687e-23
6.21213e-23
-4.8443e-23
6.50585e-23
-4.43448e-23
6.77001e-23
-3.99142e-23
7.00267e-23
-3.51909e-23
7.20214e-23
-3.0214e-23
7.36705e-23
-2.50218e-23
7.49625e-23
-1.96523e-23
7.58897e-23
-1.41438e-23
7.64474e-23
-8.5344e-24
7.66333e-23
-2.86388e-24
7.64464e-23
2.82722e-24
7.58877e-23
8.49808e-24
7.49595e-23
1.4108e-23
7.36666e-23
1.96177e-23
7.20168e-23
2.49885e-23
7.00212e-23
3.01824e-23
6.76938e-23
3.51614e-23
6.50516e-23
3.9887e-23
6.21138e-23
4.43202e-23
5.89028e-23
4.84215e-23
5.54435e-23
5.21505e-23
5.17636e-23
5.5466e-23
4.7894e-23
5.83254e-23
4.38688e-23
6.06848e-23
3.97258e-23
6.24978e-23
3.55066e-23
6.3716e-23
3.12561e-23
6.42887e-23
2.70245e-23
6.41589e-23
2.28666e-23
6.32655e-23
1.88427e-23
6.15424e-23
1.50181e-23
5.89154e-23
1.14596e-23
5.5302e-23
8.24424e-24
5.06064e-23
5.45439e-24
4.47206e-23
3.16057e-24
3.75298e-23
1.44205e-24
2.89e-23
3.70612e-25
1.86727e-23
6.99527e-24
3.02386e-25
-7.28935e-24
1.16873e-24
-1.95296e-23
2.56296e-24
-3.02702e-23
4.42923e-24
-3.93702e-23
6.70614e-24
-4.69713e-23
9.33029e-24
-5.32022e-23
1.22394e-23
-5.81848e-23
1.53722e-23
-6.20262e-23
1.86709e-23
-6.48228e-23
2.2082e-23
-6.66622e-23
2.55564e-23
-6.76236e-23
2.90479e-23
-6.7775e-23
3.25148e-23
-6.71823e-23
3.59202e-23
-6.59068e-23
3.92292e-23
-6.40016e-23
4.24105e-23
-6.15186e-23
4.54358e-23
-5.85069e-23
4.82797e-23
-5.50135e-23
5.09191e-23
-5.10831e-23
5.33335e-23
-4.67598e-23
5.55048e-23
-4.20859e-23
5.7417e-23
-3.71035e-23
5.90564e-23
-3.18535e-23
6.04114e-23
-2.63769e-23
6.14732e-23
-2.07141e-23
6.22354e-23
-1.49056e-23
6.26937e-23
-8.9923e-24
6.2846e-23
-3.01567e-24
6.26916e-23
2.98233e-24
6.22312e-23
8.95937e-24
6.14669e-23
1.48734e-23
6.0403e-23
2.06828e-23
5.90459e-23
2.63468e-23
5.74048e-23
3.1825e-23
5.54909e-23
3.70768e-23
5.33181e-23
4.20615e-23
5.09023e-23
4.67378e-23
4.82618e-23
5.1064e-23
4.5417e-23
5.49973e-23
4.23911e-23
5.84941e-23
3.92094e-23
6.15094e-23
3.59003e-23
6.39963e-23
3.24953e-23
6.59055e-23
2.90289e-23
6.71851e-23
2.55381e-23
6.77823e-23
2.20648e-23
6.76352e-23
1.86556e-23
6.66778e-23
1.53587e-23
6.48428e-23
1.22275e-23
6.20501e-23
9.32159e-24
5.82112e-23
6.7011e-24
5.32301e-23
4.42435e-24
4.70012e-23
2.56022e-24
3.93974e-23
1.16851e-24
3.02892e-23
3.04236e-25
1.95432e-23
7.29963e-24
2.33572e-25
-7.52462e-24
9.03729e-25
-2.02016e-23
1.98219e-24
-3.13507e-23
3.42774e-24
-4.08177e-23
5.19369e-24
-4.87392e-23
7.23208e-24
-5.52425e-23
9.49405e-24
-6.04485e-23
1.19323e-23
-6.44662e-23
1.4502e-23
-6.73941e-23
1.71612e-23
-6.93228e-23
1.98712e-23
-7.03349e-23
2.25949e-23
-7.05e-23
2.53011e-23
-6.98896e-23
2.796e-23
-6.85667e-23
3.05441e-23
-6.65866e-23
3.30285e-23
-6.40037e-23
3.53911e-23
-6.08701e-23
3.76118e-23
-5.72347e-23
3.96729e-23
-5.31446e-23
4.15582e-23
-4.86454e-23
4.32535e-23
-4.37814e-23
4.47461e-23
-3.85963e-23
4.60258e-23
-3.31332e-23
4.70835e-23
-2.74346e-23
4.79124e-23
-2.15428e-23
4.85074e-23
-1.55003e-23
4.88649e-23
-9.34944e-24
4.89831e-23
-3.13339e-24
4.88616e-23
3.10451e-24
4.85009e-23
9.32068e-24
4.79031e-23
1.5472e-23
4.70713e-23
2.15154e-23
4.60107e-23
2.74083e-23
4.47283e-23
3.31084e-23
4.32331e-23
3.85732e-23
4.15357e-23
4.37601e-23
3.96484e-23
4.86263e-23
3.75857e-23
5.31281e-23
3.53636e-23
5.72209e-23
3.3e-23
6.08592e-23
3.0515e-23
6.3996e-23
2.79308e-23
6.65823e-23
2.52721e-23
6.8566e-23
2.25665e-23
6.98926e-23
1.9844e-23
7.05068e-23
1.71358e-23
7.03456e-23
1.44786e-23
6.93374e-23
1.19112e-23
6.74123e-23
9.47666e-24
6.44869e-23
7.21847e-24
6.04721e-23
5.18253e-24
5.52684e-23
3.42061e-24
4.87639e-23
1.97887e-24
4.08404e-23
9.03197e-25
3.13721e-23
2.3197e-25
2.02116e-23
7.53164e-24
1.6651e-25
-7.69067e-24
6.43563e-25
-2.06799e-23
1.41238e-24
-3.21205e-23
2.44327e-24
-4.18495e-23
3.70355e-24
-5.00003e-23
5.15916e-24
-5.66988e-23
6.77559e-24
-6.20658e-23
8.51964e-24
-6.62109e-23
1.0359e-23
-6.92341e-23
1.22625e-23
-7.12269e-23
1.42035e-23
-7.22766e-23
1.61542e-23
-7.24511e-23
1.80934e-23
-7.18292e-23
1.99991e-23
-7.04727e-23
2.18512e-23
-6.8439e-23
2.36316e-23
-6.57844e-23
2.53248e-23
-6.25634e-23
2.69162e-23
-5.88263e-23
2.83931e-23
-5.46216e-23
2.97439e-23
-4.99961e-23
3.09585e-23
-4.49959e-23
3.20279e-23
-3.96656e-23
3.29445e-23
-3.40497e-23
3.37021e-23
-2.81919e-23
3.42956e-23
-2.2136e-23
3.47213e-23
-1.59256e-23
3.49768e-23
-9.60462e-24
3.50609e-23
-3.21702e-24
3.4973e-23
3.19286e-24
3.47134e-23
9.58073e-24
3.42838e-23
1.59022e-23
3.36865e-23
2.21132e-23
3.29255e-23
2.817e-23
3.20056e-23
3.40289e-23
3.09331e-23
3.96464e-23
2.97158e-23
4.49783e-23
2.83624e-23
4.99805e-23
2.68834e-23
5.4608e-23
2.52902e-23
5.8815e-23
2.35958e-23
6.25546e-23
2.18146e-23
6.57783e-23
1.99622e-23
6.84357e-23
1.80568e-23
7.04726e-23
1.61185e-23
7.18321e-23
1.41693e-23
7.24572e-23
1.22301e-23
7.22861e-23
1.03295e-23
7.12391e-23
8.49391e-24
6.92492e-23
6.75294e-24
6.62293e-23
5.14003e-24
6.20858e-23
3.69018e-24
5.6719e-23
2.43504e-24
5.00211e-23
1.40686e-24
4.18697e-23
6.3935e-25
3.21349e-23
1.65392e-25
2.06901e-23
7.69706e-24
1.00024e-25
-7.79164e-24
3.87502e-25
-2.09668e-23
8.50102e-25
-3.25828e-23
1.47003e-24
-4.24692e-23
2.22802e-24
-5.0758e-23
3.10345e-24
-5.75741e-23
4.07577e-24
-6.30378e-23
5.12492e-24
-6.72599e-23
6.23368e-24
-7.03427e-23
7.38357e-24
-7.23766e-23
8.54729e-24
-7.34401e-23
9.72023e-24
-7.36238e-23
1.08909e-23
-7.29997e-23
1.20398e-23
-7.16214e-23
1.31535e-23
-6.95524e-23
1.42244e-23
-6.6855e-23
1.5243e-23
-6.35817e-23
1.62005e-23
-5.97835e-23
1.70891e-23
-5.55098e-23
1.79017e-23
-5.08084e-23
1.86322e-23
-4.5726e-23
1.92753e-23
-4.03082e-23
1.98262e-23
-3.46002e-23
2.02813e-23
-2.86466e-23
2.06377e-23
-2.2492e-23
2.08932e-23
-1.61806e-23
2.1046e-23
-9.75711e-24
2.10955e-23
-3.26616e-24
2.10413e-23
3.24732e-24
2.0884e-23
9.73843e-24
2.06242e-23
1.61623e-23
2.02636e-23
2.24742e-23
1.98043e-23
2.86297e-23
1.92494e-23
3.45842e-23
1.86028e-23
4.02933e-23
1.78691e-23
4.57124e-23
1.70536e-23
5.07963e-23
1.61626e-23
5.54994e-23
1.5203e-23
5.97749e-23
1.4183e-23
6.35751e-23
1.31112e-23
6.68505e-23
1.19972e-23
6.95501e-23
1.08486e-23
7.16215e-23
9.67872e-24
7.30023e-23
8.50741e-24
7.36288e-23
7.34644e-24
7.34473e-23
6.19957e-24
7.23864e-23
5.09391e-24
7.0355e-23
4.04971e-24
6.72734e-23
3.08356e-24
6.30525e-23
2.21155e-24
5.75913e-23
1.45667e-24
5.07745e-23
8.42821e-25
4.2483e-23
3.87075e-25
3.25957e-23
9.97385e-26
2.09731e-23
7.79674e-24
3.48981e-26
-7.82531e-24
1.33514e-25
-2.10644e-23
2.91923e-25
-3.27399e-23
5.03439e-25
-4.26794e-23
7.61121e-25
-5.10144e-23
1.05812e-24
-5.78698e-23
1.38714e-24
-6.33657e-23
1.74044e-24
-6.7612e-23
2.1101e-24
-7.07112e-23
2.4935e-24
-7.27589e-23
2.89198e-24
-7.38375e-23
3.30543e-24
-7.40363e-23
3.70138e-24
-7.33947e-23
4.07921e-24
-7.19984e-23
4.45006e-24
-6.99224e-23
4.809e-24
-6.72131e-23
5.15055e-24
-6.39226e-23
5.47153e-24
-6.01038e-23
5.76927e-24
-5.58069e-23
6.0414e-24
-5.10799e-23
6.28575e-24
-4.59697e-23
6.50058e-24
-4.05225e-23
6.68442e-24
-3.47834e-23
6.83602e-24
-2.87976e-23
6.95426e-24
-2.26097e-23
7.03846e-24
-1.62644e-23
7.08813e-24
-9.80643e-24
7.10303e-24
-3.2808e-24
7.08308e-24
3.26748e-24
7.02839e-24
9.79328e-24
6.93932e-24
1.62515e-23
6.81638e-24
2.25972e-23
6.66042e-24
2.87857e-23
6.47236e-24
3.47722e-23
6.25366e-24
4.0512e-23
6.00568e-24
4.59603e-23
5.73047e-24
5.10715e-23
5.43002e-24
5.57997e-23
5.10687e-24
6.00979e-23
4.76369e-24
6.39181e-23
4.40379e-24
6.72101e-23
4.03254e-24
6.99211e-23
3.6551e-24
7.19986e-23
3.26022e-24
7.33967e-23
2.84858e-24
7.404e-23
2.45249e-24
7.38429e-23
2.07239e-24
7.27657e-23
1.70764e-24
7.07191e-23
1.35858e-24
6.76219e-23
1.03271e-24
6.3377e-23
7.42784e-25
5.78799e-23
4.93197e-25
5.10243e-23
2.84389e-25
4.26907e-23
1.26064e-25
3.27476e-23
3.14629e-26
2.10704e-23
7.82812e-24
-3.06664e-26
-7.79486e-24
-1.195e-25
-2.09726e-23
-2.64782e-25
-3.2592e-23
-4.61196e-25
-4.24805e-23
-7.02746e-25
-5.07705e-23
-9.83247e-25
-5.7587e-23
-1.29609e-24
-6.30506e-23
-1.63377e-24
-6.72722e-23
-1.98871e-24
-7.03543e-23
-2.35831e-24
-7.23874e-23
-2.74393e-24
-7.34501e-23
-3.14558e-24
-7.3633e-23
-3.53076e-24
-7.30079e-23
-3.89899e-24
-7.16287e-23
-4.26146e-24
-6.95586e-23
-4.61308e-24
-6.68602e-23
-4.94848e-24
-6.3586e-23
-5.26433e-24
-5.97869e-23
-5.55808e-24
-5.55122e-23
-5.82726e-24
-5.08098e-23
-6.06971e-24
-4.57264e-23
-6.28357e-24
-4.03078e-23
-6.46741e-24
-3.45988e-23
-6.61996e-24
-2.86444e-23
-6.7402e-24
-2.24889e-23
-6.82736e-24
-1.61767e-23
-6.88096e-24
-9.75251e-24
-6.9006e-24
-3.26092e-24
-6.88623e-24
3.25324e-24
-6.83788e-24
9.74498e-24
-6.75587e-24
1.61694e-23
-6.64057e-24
2.24818e-23
-6.4927e-24
2.86376e-23
-6.31321e-24
3.45925e-23
-6.10342e-24
4.03019e-23
-5.86472e-24
4.57212e-23
-5.59891e-24
5.08052e-23
-5.30798e-24
5.55082e-23
-4.99436e-24
5.97836e-23
-4.66069e-24
6.35836e-23
-4.31014e-24
6.68587e-23
-3.94806e-24
6.95579e-23
-3.57949e-24
7.16289e-23
-3.19316e-24
7.30091e-23
-2.78959e-24
7.36349e-23
-2.40108e-24
7.34528e-23
-2.02796e-24
7.23912e-23
-1.66998e-24
7.03592e-23
-1.32705e-24
6.72767e-23
-1.00642e-24
6.3055e-23
-7.21967e-25
5.75937e-23
-4.78792e-25
5.07773e-23
-2.74463e-25
4.2484e-23
-1.20597e-25
3.25963e-23
-3.02713e-26
2.09741e-23
7.79768e-24
-9.63134e-26
-7.69659e-24
-3.7393e-25
-2.06916e-23
-8.23464e-25
-3.21388e-23
-1.4287e-24
-4.18717e-23
-2.17104e-24
-5.00246e-23
-3.03073e-24
-5.67239e-23
-3.98741e-24
-6.20906e-23
-5.02141e-24
-6.6235e-23
-6.11586e-24
-6.92568e-23
-7.2523e-24
-7.12482e-23
-8.40345e-24
-7.22964e-23
-9.5651e-24
-7.24689e-23
-1.07257e-23
-7.18451e-23
-1.18655e-23
-7.04868e-23
-1.2971e-23
-6.8451e-23
-1.40349e-23
-6.57946e-23
-1.50475e-23
-6.25716e-23
-1.60001e-23
-5.88327e-23
-1.68848e-23
-5.46261e-23
-1.76944e-23
-4.99989e-23
-1.8423e-23
-4.49967e-23
-1.90651e-23
-3.96646e-23
-1.96162e-23
-3.40468e-23
-2.00724e-23
-2.81874e-23
-2.04307e-23
-2.21299e-23
-2.06889e-23
-1.59181e-23
-2.08455e-23
-9.59554e-24
-2.08995e-23
-3.20662e-24
-2.08509e-23
3.20466e-24
-2.06995e-23
9.59355e-24
-2.04465e-23
1.59162e-23
-2.00931e-23
2.21281e-23
-1.96418e-23
2.81859e-23
-1.90952e-23
3.40454e-23
-1.84574e-23
3.96634e-23
-1.77325e-23
4.49955e-23
-1.69262e-23
4.99979e-23
-1.60443e-23
5.46253e-23
-1.50941e-23
5.88322e-23
-1.40832e-23
6.25712e-23
-1.30205e-23
6.57944e-23
-1.19153e-23
6.8451e-23
-1.07753e-23
7.04869e-23
-9.61346e-24
7.18452e-23
-8.44998e-24
7.24693e-23
-7.29653e-24
7.2297e-23
-6.15676e-24
7.12485e-23
-5.05683e-24
6.92567e-23
-4.01859e-24
6.62361e-23
-3.05959e-24
6.20922e-23
-2.19228e-24
5.67228e-23
-1.43989e-24
5.00233e-23
-8.3265e-25
4.18732e-23
-3.8392e-25
3.21392e-23
-1.00776e-25
2.06916e-23
7.6967e-24
-1.62121e-25
-7.53387e-24
-6.30138e-25
-2.02181e-23
-1.38695e-24
-3.13769e-23
-2.40413e-24
-4.08496e-23
-3.64974e-24
-4.87743e-23
-5.09053e-24
-5.52785e-23
-6.69259e-24
-6.04842e-23
-8.42276e-24
-6.45007e-23
-1.02488e-23
-6.74269e-23
-1.21399e-23
-6.93534e-23
-1.40696e-23
-7.03632e-23
-1.60098e-23
-7.05256e-23
-1.79394e-23
-6.99125e-23
-1.98367e-23
-6.85867e-23
-2.16811e-23
-6.6604e-23
-2.34551e-23
-6.40183e-23
-2.51425e-23
-6.08821e-23
-2.67294e-23
-5.72438e-23
-2.82025e-23
-5.31511e-23
-2.95508e-23
-4.8649e-23
-3.07634e-23
-4.37826e-23
-3.1832e-23
-3.85948e-23
-3.27484e-23
-3.31293e-23
-3.3507e-23
-2.7428e-23
-3.41021e-23
-2.1534e-23
-3.45307e-23
-1.5489e-23
-3.47895e-23
-9.33627e-24
-3.48779e-23
-3.11811e-24
-3.47946e-23
3.12146e-24
-3.45411e-23
9.33972e-24
-3.41176e-23
1.54924e-23
-3.35275e-23
2.15374e-23
-3.27735e-23
2.74313e-23
-3.18615e-23
3.31325e-23
-3.07969e-23
3.85978e-23
-2.95881e-23
4.37855e-23
-2.82432e-23
4.86517e-23
-2.67729e-23
5.31534e-23
-2.51882e-23
5.72457e-23
-2.35026e-23
6.08836e-23
-2.17297e-23
6.40193e-23
-1.98858e-23
6.66045e-23
-1.79882e-23
6.85867e-23
-1.60578e-23
6.99119e-23
-1.41159e-23
7.05242e-23
-1.21833e-23
7.03609e-23
-1.02888e-23
6.93509e-23
-8.46032e-24
6.74243e-23
-6.72503e-24
6.4496e-23
-5.11412e-24
6.0478e-23
-3.67047e-24
5.52753e-23
-2.42468e-24
4.87709e-23
-1.39859e-24
4.08427e-23
-6.31664e-25
3.13719e-23
-1.62088e-25
2.02143e-23
7.53432e-24
-2.30205e-25
-7.30089e-24
-8.9133e-25
-1.95508e-23
-1.95896e-24
-3.0303e-23
-3.39203e-24
-3.94104e-23
-5.14514e-24
-4.70153e-23
-7.17019e-24
-5.32478e-23
-9.41932e-24
-5.82296e-23
-1.18454e-23
-6.20695e-23
-1.44036e-23
-6.4864e-23
-1.70519e-23
-6.67006e-23
-1.97519e-23
-6.76591e-23
-2.24663e-23
-6.78072e-23
-2.51642e-23
-6.7211e-23
-2.78154e-23
-6.59321e-23
-3.03928e-23
-6.40235e-23
-3.28712e-23
-6.15369e-23
-3.52288e-23
-5.85219e-23
-3.74453e-23
-5.50248e-23
-3.95031e-23
-5.10912e-23
-4.13857e-23
-4.67643e-23
-4.30793e-23
-4.20873e-23
-4.45712e-23
-3.71013e-23
-4.58509e-23
-3.18484e-23
-4.69094e-23
-2.63684e-23
-4.77398e-23
-2.07029e-23
-4.83368e-23
-1.48912e-23
-4.86973e-23
-8.97544e-24
-4.88194e-23
-2.99576e-24
-4.87024e-23
3.00428e-24
-4.83467e-23
8.98387e-24
-4.77543e-23
1.48995e-23
-4.69286e-23
2.07111e-23
-4.58745e-23
2.63763e-23
-4.45992e-23
3.18561e-23
-4.31111e-23
3.71084e-23
-4.14212e-23
4.20941e-23
-3.95415e-23
4.67701e-23
-3.74866e-23
5.10966e-23
-3.52722e-23
5.5029e-23
-3.29164e-23
5.85253e-23
-3.0439e-23
6.15389e-23
-2.78623e-23
6.40247e-23
-2.52108e-23
6.59317e-23
-2.25121e-23
6.72095e-23
-1.9796e-23
6.78041e-23
-1.70944e-23
6.76553e-23
-1.44431e-23
6.66947e-23
-1.18797e-23
6.48561e-23
-9.44957e-24
6.20619e-23
-7.20047e-24
5.82226e-23
-5.16759e-24
5.32361e-23
-3.40256e-24
4.70024e-23
-1.96918e-24
3.94029e-23
-9.03905e-25
3.02961e-23
-2.36158e-25
1.95447e-23
7.29783e-24
-2.98552e-25
-7.00079e-24
-1.15765e-24
-1.86837e-23
-2.5422e-24
-2.89108e-23
-4.39822e-24
-3.75471e-23
-6.66449e-24
-4.4742e-23
-9.27803e-24
-5.06275e-23
-1.21767e-23
-5.53246e-23
-1.52993e-23
-5.89408e-23
-1.85885e-23
-6.1569e-23
-2.19905e-23
-6.32932e-23
-2.54569e-23
-6.41878e-23
-2.89405e-23
-6.43189e-23
-3.24006e-23
-6.37467e-23
-3.57992e-23
-6.25294e-23
-3.91029e-23
-6.07162e-23
-4.22788e-23
-5.83576e-23
-4.53003e-23
-5.54974e-23
-4.814e-23
-5.21822e-23
-5.0777e-23
-4.84518e-23
-5.31887e-23
-4.43504e-23
-5.5359e-23
-3.99151e-23
-5.72697e-23
-3.51889e-23
-5.89095e-23
-3.02072e-23
-6.02644e-23
-2.50123e-23
-6.13283e-23
-1.96382e-23
-6.20915e-23
-1.41273e-23
-6.25531e-23
-8.51357e-24
-6.27075e-23
-2.84119e-24
-6.25575e-23
2.85396e-24
-6.21002e-23
8.52625e-24
-6.13415e-23
1.41399e-23
-6.02817e-23
1.96505e-23
-5.89311e-23
2.50244e-23
-5.72948e-23
3.02186e-23
-5.53881e-23
3.51999e-23
-5.32207e-23
3.99248e-23
-5.08123e-23
4.43594e-23
-4.81774e-23
4.84593e-23
-4.53402e-23
5.21887e-23
-4.23199e-23
5.5502e-23
-3.91455e-23
5.8361e-23
-3.5842e-23
6.07175e-23
-3.24436e-23
6.25292e-23
-2.89826e-23
6.37442e-23
-2.54982e-23
6.4315e-23
-2.20291e-23
6.4181e-23
-1.86247e-23
6.32852e-23
-1.53337e-23
6.156e-23
-1.22077e-23
5.89286e-23
-9.29962e-24
5.53088e-23
-6.68371e-24
5.06147e-23
-4.42156e-24
4.47309e-23
-2.55559e-24
3.75306e-23
-1.15878e-24
2.88961e-23
-2.98053e-25
1.86748e-23
6.99939e-24
-3.70387e-25
-6.62695e-24
-1.43233e-24
-1.76131e-23
-3.14218e-24
-2.71924e-23
-5.42811e-24
-3.52528e-23
-8.21456e-24
-4.19475e-23
-1.14223e-23
-4.74121e-23
-1.49729e-23
-5.17666e-23
-1.87925e-23
-5.51143e-23
-2.28104e-23
-5.75444e-23
-2.69624e-23
-5.91352e-23
-3.11882e-23
-5.99561e-23
-3.54337e-23
-6.00682e-23
-3.96477e-23
-5.95276e-23
-4.37864e-23
-5.83863e-23
-4.78068e-23
-5.66914e-23
-5.16728e-23
-5.44879e-23
-5.53487e-23
-5.18178e-23
-5.88054e-23
-4.87226e-23
-6.20131e-23
-4.52411e-23
-6.49489e-23
-4.14123e-23
-6.75886e-23
-3.7273e-23
-6.9915e-23
-3.2861e-23
-7.1909e-23
-2.82115e-23
-7.35588e-23
-2.33616e-23
-7.48509e-23
-1.83449e-23
-7.57799e-23
-1.31979e-23
-7.63388e-23
-7.95411e-24
-7.65274e-23
-2.65287e-24
-7.63426e-23
2.66915e-24
-7.57875e-23
7.97025e-24
-7.48621e-23
1.3214e-23
-7.35736e-23
1.83605e-23
-7.19273e-23
2.33769e-23
-6.99366e-23
2.82257e-23
-6.76134e-23
3.28747e-23
-6.49765e-23
3.72852e-23
-6.20433e-23
4.14238e-23
-5.88378e-23
4.52504e-23
-5.53831e-23
4.87309e-23
-5.17086e-23
5.18236e-23
-4.78436e-23
5.44922e-23
-4.38237e-23
5.66929e-23
-3.96853e-23
5.83864e-23
-3.54708e-23
5.95245e-23
-3.12241e-23
6.0063e-23
-2.69971e-23
5.99484e-23
-2.28437e-23
5.91257e-23
-1.88211e-23
5.75302e-23
-1.49985e-23
5.51001e-23
-1.14501e-23
5.17527e-23
-8.23814e-24
4.73935e-23
-5.43694e-24
4.19246e-23
-3.15195e-24
3.52373e-23
-1.44777e-24
2.718e-23
-3.79362e-25
1.7603e-23
6.61964e-24
-4.45329e-25
-6.17925e-24
-1.71763e-24
-1.63309e-23
-3.76217e-24
-2.51384e-23
-6.4893e-24
-3.25165e-23
-9.80456e-24
-3.86233e-23
-1.36114e-23
-4.35967e-23
-1.78164e-23
-4.75534e-23
-2.23319e-23
-5.05908e-23
-2.70749e-23
-5.2794e-23
-3.19704e-23
-5.42327e-23
-3.69484e-23
-5.49716e-23
-4.19462e-23
-5.50642e-23
-4.69044e-23
-5.45638e-23
-5.17723e-23
-5.35131e-23
-5.64997e-23
-5.19593e-23
-6.10454e-23
-4.99378e-23
-6.53665e-23
-4.7493e-23
-6.94304e-23
-4.46552e-23
-7.32008e-23
-4.14677e-23
-7.66529e-23
-3.79574e-23
-7.97559e-23
-3.41678e-23
-8.24919e-23
-3.01228e-23
-8.48356e-23
-2.58663e-23
-8.6776e-23
-2.14197e-23
-8.82934e-23
-1.68267e-23
-8.93854e-23
-1.21052e-23
-9.00397e-23
-7.29965e-24
-9.02616e-23
-2.43093e-24
-9.00425e-23
2.44953e-24
-8.93912e-23
7.31835e-24
-8.83018e-23
1.21232e-23
-8.67877e-23
1.68448e-23
-8.48494e-23
2.14365e-23
-8.25092e-23
2.58831e-23
-7.97748e-23
3.01374e-23
-7.66751e-23
3.41824e-23
-7.3224e-23
3.79691e-23
-6.94565e-23
4.14793e-23
-6.5393e-23
4.46634e-23
-6.10744e-23
4.75008e-23
-5.65284e-23
4.99416e-23
-5.18028e-23
5.19626e-23
-4.69337e-23
5.35119e-23
-4.19766e-23
5.45618e-23
-3.69774e-23
5.5058e-23
-3.19994e-23
5.49639e-23
-2.71006e-23
5.42201e-23
-2.2359e-23
5.27819e-23
-1.78415e-23
5.05741e-23
-1.36293e-23
4.75321e-23
-9.8193e-24
4.35768e-23
-6.51178e-24
3.86066e-23
-3.77762e-24
3.24953e-23
-1.71859e-24
2.51167e-23
-4.41779e-25
1.63168e-23
6.17746e-24
-5.22131e-25
-5.65324e-24
-2.01719e-24
-1.48256e-23
-4.40891e-24
-2.27363e-23
-7.58976e-24
-2.93256e-23
-1.14425e-23
-3.47607e-23
-1.58543e-23
-3.91753e-23
-2.07156e-23
-4.26829e-23
-2.59237e-23
-4.53739e-23
-3.13865e-23
-4.73228e-23
-3.70167e-23
-4.85946e-23
-4.27375e-23
-4.92436e-23
-4.84752e-23
-4.93196e-23
-5.41673e-23
-4.88655e-23
-5.97511e-23
-4.79235e-23
-6.51753e-23
-4.65298e-23
-7.03868e-23
-4.47215e-23
-7.53447e-23