/*--------------------------------*- C++ -*----------------------------------*\
| =========                 |                                                 |
| \\      /  F ield         | OpenFOAM: The Open Source CFD Toolbox           |
|  \\    /   O peration     | Version:  5.0                                   |
|   \\  /    A nd           | Web:      www.OpenFOAM.org                      |
|    \\/     M anipulation  |                                                 |
\*---------------------------------------------------------------------------*/
FoamFile
{
    version     2.0;
    format      ascii;
    class       volScalarField;
    location    "0.3";
    object      p;
}
// * * * * * * * * * * * * * * * * * * * * * * * * * * * * * * * * * * * * * //

dimensions      [0 2 -2 0 0 0 0];

internalField   nonuniform List<scalar> 
50
(
18.9917
16.9735
14.9583
12.937
10.9284
8.86037
6.85422
4.92178
2.95125
1.00052
18.9917
16.9735
14.9583
12.9371
10.9291
8.90386
6.89873
4.92459
2.9515
0.97504
18.9917
16.9735
14.9583
12.9373
10.929
8.91143
6.90274
4.92446
2.95168
0.976805
18.9917
16.9735
14.9583
12.9374
10.9285
8.90574
6.8954
4.92339
2.95168
0.979839
18.9917
16.9735
14.9582
12.9374
10.928
8.90063
6.89001
4.92239
2.95146
0.979969
)
;

boundaryField
{
    top
    {
        type            zeroGradient;
    }
    bottom
    {
        type            symmetryPlane;
    }
    inlet
    {
        type            fixedValue;
        value           uniform 20;
    }
    outlet
    {
        type            fixedValue;
        value           uniform 0;
    }
    frontAndBack
    {
        type            empty;
    }
}


// ************************************************************************* //
