/*--------------------------------*- C++ -*----------------------------------*\
| =========                 |                                                 |
| \\      /  F ield         | OpenFOAM: The Open Source CFD Toolbox           |
|  \\    /   O peration     | Version:  5.0                                   |
|   \\  /    A nd           | Web:      www.OpenFOAM.org                      |
|    \\/     M anipulation  |                                                 |
\*---------------------------------------------------------------------------*/
FoamFile
{
    version     2.0;
    format      ascii;
    class       surfaceScalarField;
    location    "0.3";
    object      phi;
}
// * * * * * * * * * * * * * * * * * * * * * * * * * * * * * * * * * * * * * //

dimensions      [0 3 -1 0 0 0 0];

internalField   nonuniform List<scalar> 
760
(
8.90198e-08
1.09326e-10
8.88924e-08
1.27371e-10
8.88629e-08
2.95199e-11
8.88528e-08
1.01632e-11
8.88513e-08
1.48411e-12
8.88508e-08
5.14617e-13
8.88508e-08
-5.64389e-14
8.88508e-08
5.6734e-14
8.88508e-08
-7.96284e-14
8.88508e-08
1.69435e-14
8.88508e-08
1.28834e-15
8.88508e-08
4.26039e-14
8.88508e-08
-4.54503e-15
8.88508e-08
1.29913e-14
8.88508e-08
-7.16505e-15
8.88508e-08
6.01955e-15
8.88508e-08
-4.16914e-15
8.88508e-08
5.27935e-15
8.88508e-08
1.60823e-15
6.98024e-15
8.84772e-08
2.17288e-10
8.83541e-08
2.50468e-10
8.83264e-08
5.72175e-11
8.83161e-08
2.04753e-11
8.83151e-08
2.53404e-12
8.83143e-08
1.27801e-12
8.83146e-08
-3.09395e-13
8.83144e-08
2.56182e-13
8.83145e-08
-2.63575e-13
8.83144e-08
1.09781e-13
8.83145e-08
-5.36541e-14
8.83144e-08
1.2689e-13
8.83144e-08
-3.98649e-14
8.83144e-08
4.8975e-14
8.83144e-08
-3.16954e-14
8.83144e-08
2.50627e-14
8.83144e-08
-1.82572e-14
8.83144e-08
1.89333e-14
8.83144e-08
-3.84984e-15
1.88095e-14
8.73969e-08
3.18984e-10
8.72814e-08
3.66014e-10
8.72557e-08
8.28717e-11
8.72461e-08
3.00427e-11
8.72452e-08
3.45896e-12
8.72445e-08
2.0001e-12
8.72447e-08
-5.60535e-13
8.72445e-08
4.51642e-13
8.72447e-08
-4.44088e-13
8.72446e-08
2.00048e-13
8.72447e-08
-1.07265e-13
8.72446e-08
2.0999e-13
8.72446e-08
-7.50206e-14
8.72446e-08
8.42599e-14
8.72446e-08
-5.57773e-14
8.72446e-08
4.36588e-14
8.72446e-08
-3.2254e-14
8.72446e-08
3.22084e-14
8.72446e-08
-8.20512e-15
3.14665e-14
8.57842e-08
4.11462e-10
8.56798e-08
4.7046e-10
8.56571e-08
1.05539e-10
8.56486e-08
3.85341e-11
8.56479e-08
4.20311e-12
8.56472e-08
2.66424e-12
8.56474e-08
-8.0998e-13
8.56473e-08
6.41934e-13
8.56474e-08
-6.19007e-13
8.56473e-08
2.8795e-13
8.56474e-08
-1.60479e-13
8.56473e-08
2.911e-13
8.56473e-08
-1.09753e-13
8.56473e-08
1.18353e-13
8.56473e-08
-7.93016e-14
8.56473e-08
6.18618e-14
8.56473e-08
-4.59373e-14
8.56473e-08
4.52709e-14
8.56473e-08
-1.18854e-14
4.42684e-14
8.36485e-08
4.92009e-10
8.35583e-08
5.60589e-10
8.35395e-08
1.24408e-10
8.35323e-08
4.56593e-11
8.35318e-08
4.72253e-12
8.35312e-08
3.25443e-12
8.35315e-08
-1.05585e-12
8.35313e-08
8.25254e-13
8.35315e-08
-7.86011e-13
8.35314e-08
3.72677e-13
8.35314e-08
-2.12994e-13
8.35313e-08
3.68774e-13
8.35314e-08
-1.44019e-13
8.35313e-08
1.50993e-13
8.35314e-08
-1.02038e-13
8.35314e-08
7.93713e-14
8.35314e-08
-5.92677e-14
8.35314e-08
5.78023e-14
8.35314e-08
-1.47676e-14
5.72712e-14
8.1002e-08
5.58191e-10
8.09291e-08
6.33552e-10
8.09147e-08
1.38804e-10
8.09091e-08
5.11816e-11
8.09089e-08
4.98615e-12
8.09084e-08
3.75746e-12
8.09086e-08
-1.2956e-12
8.09084e-08
9.99435e-13
8.09086e-08
-9.41928e-13
8.09085e-08
4.54073e-13
8.09086e-08
-2.65119e-13
8.09085e-08
4.41172e-13
8.09085e-08
-1.77512e-13
8.09085e-08
1.81634e-13
8.09085e-08
-1.23716e-13
8.09085e-08
9.60341e-14
8.09085e-08
-7.20421e-14
8.09085e-08
6.96717e-14
8.09085e-08
-1.72311e-14
6.98903e-14
7.78602e-08
6.07942e-10
7.78068e-08
6.87001e-10
7.77974e-08
1.48235e-10
7.77936e-08
5.49308e-11
7.77936e-08
4.97744e-12
7.77932e-08
4.16331e-12
7.77935e-08
-1.52576e-12
7.77933e-08
1.16224e-12
7.77934e-08
-1.08399e-12
7.77934e-08
5.31354e-13
7.77934e-08
-3.16551e-13
7.77933e-08
5.06629e-13
7.77934e-08
-2.09862e-13
7.77933e-08
2.09872e-13
7.77934e-08
-1.44061e-13
7.77933e-08
1.11562e-13
7.77934e-08
-8.40436e-14
7.77933e-08
8.06561e-14
7.77934e-08
-1.9586e-14
8.16394e-14
7.42413e-08
6.39635e-10
7.42092e-08
7.1916e-10
7.4205e-08
1.52415e-10
7.42031e-08
5.68111e-11
7.42034e-08
4.69656e-12
7.42031e-08
4.46531e-12
7.42033e-08
-1.74191e-12
7.42032e-08
1.311e-12
7.42033e-08
-1.20913e-12
7.42032e-08
6.03793e-13
7.42033e-08
-3.66786e-13
7.42032e-08
5.63298e-13
7.42032e-08
-2.4068e-13
7.42032e-08
2.3518e-13
7.42032e-08
-1.6269e-13
7.42032e-08
1.25706e-13
7.42032e-08
-9.51008e-14
7.42032e-08
9.04848e-14
7.42032e-08
-2.20273e-14
9.21301e-14
7.01662e-08
6.52162e-10
7.01565e-08
7.28929e-10
7.01576e-08
1.51278e-10
7.01576e-08
5.68062e-11
7.01581e-08
4.16115e-12
7.0158e-08
4.65993e-12
7.01582e-08
-1.93835e-12
7.0158e-08
1.44262e-12
7.01581e-08
-1.31425e-12
7.01581e-08
6.70033e-13
7.01581e-08
-4.14942e-13
7.01581e-08
6.09529e-13
7.01581e-08
-2.69244e-13
7.01581e-08
2.57003e-13
7.01581e-08
-1.79212e-13
7.01581e-08
1.38104e-13
7.01581e-08
-1.04911e-13
7.01581e-08
9.89141e-14
7.01581e-08
-2.48098e-14
1.00821e-13
6.56586e-08
6.45017e-10
6.56715e-08
7.15977e-10
6.56778e-08
1.45005e-10
6.56796e-08
5.49831e-11
6.56804e-08
3.40657e-12
6.56803e-08
4.74655e-12
6.56805e-08
-2.10824e-12
6.56804e-08
1.55329e-12
6.56805e-08
-1.39599e-12
6.56804e-08
7.2842e-13
6.56804e-08
-4.59635e-13
6.56804e-08
6.43598e-13
6.56804e-08
-2.94794e-13
6.56804e-08
2.74669e-13
6.56804e-08
-1.93084e-13
6.56804e-08
1.48421e-13
6.56804e-08
-1.13227e-13
6.56804e-08
1.0562e-13
6.56804e-08
-2.8015e-14
1.07332e-13
6.07445e-08
6.18381e-10
6.07796e-08
6.80842e-10
6.07906e-08
1.34022e-10
6.07941e-08
5.14915e-11
6.0795e-08
2.4851e-12
6.07951e-08
4.72675e-12
6.07952e-08
-2.24322e-12
6.07951e-08
1.63846e-12
6.07952e-08
-1.45074e-12
6.07951e-08
7.76533e-13
6.07952e-08
-4.99059e-13
6.07951e-08
6.6388e-13
6.07952e-08
-3.16141e-13
6.07951e-08
2.87459e-13
6.07952e-08
-2.0374e-13
6.07951e-08
1.56161e-13
6.07952e-08
-1.19621e-13
6.07951e-08
1.1032e-13
6.07952e-08
-3.17172e-14
1.11157e-13
5.54525e-08
5.73213e-10
5.55083e-08
6.25015e-10
5.55233e-08
1.19011e-10
5.55282e-08
4.65607e-11
5.55292e-08
1.46461e-12
5.55294e-08
4.60358e-12
5.55295e-08
-2.33364e-12
5.55294e-08
1.69253e-12
5.55294e-08
-1.47445e-12
5.55294e-08
8.11443e-13
5.55294e-08
-5.30744e-13
5.55294e-08
6.68665e-13
5.55294e-08
-3.31993e-13
5.55294e-08
2.94481e-13
5.55294e-08
-2.10419e-13
5.55294e-08
1.6085e-13
5.55294e-08
-1.23721e-13
5.55294e-08
1.12632e-13
5.55294e-08
-3.57396e-14
1.12014e-13
4.98131e-08
5.1134e-10
4.98871e-08
5.51039e-10
4.99052e-08
1.00893e-10
4.99113e-08
4.04915e-11
4.99123e-08
4.26131e-13
4.99125e-08
4.38023e-12
4.99126e-08
-2.36816e-12
4.99125e-08
1.70871e-12
4.99125e-08
-1.46265e-12
4.99125e-08
8.29178e-13
4.99125e-08
-5.51593e-13
4.99125e-08
6.56296e-13
4.99126e-08
-3.40524e-13
4.99126e-08
2.94746e-13
4.99126e-08
-2.12295e-13
4.99126e-08
1.61798e-13
4.99126e-08
-1.24926e-13
4.99126e-08
1.1221e-13
4.99126e-08
-3.98438e-14
1.09495e-13
4.38591e-08
4.35564e-10
4.39476e-08
4.62601e-10
4.39676e-08
8.08151e-11
4.39745e-08
3.36452e-11
4.39754e-08
-5.39059e-13
4.39758e-08
4.05878e-12
4.39757e-08
-2.33388e-12
4.39758e-08
1.67859e-12
4.39757e-08
-1.41016e-12
4.39757e-08
8.24945e-13
4.39757e-08
-5.5763e-13
4.39757e-08
6.24992e-13
4.39757e-08
-3.39705e-13
4.39758e-08
2.87015e-13
4.39758e-08
-2.08299e-13
4.39758e-08
1.58315e-13
4.39758e-08
-1.22675e-13
4.39758e-08
1.08596e-13
4.39758e-08
-4.34821e-14
1.03447e-13
3.7625e-08
3.49768e-10
3.7723e-08
3.64622e-10
3.77437e-08
6.01198e-11
3.77509e-08
2.64282e-11
3.77517e-08
-1.33324e-12
3.77521e-08
3.63838e-12
3.7752e-08
-2.21589e-12
3.77521e-08
1.592e-12
3.7752e-08
-1.31104e-12
3.7752e-08
7.92563e-13
3.7752e-08
-5.43953e-13
3.7752e-08
5.72908e-13
3.7752e-08
-3.26867e-13
3.7752e-08
2.69858e-13
3.7752e-08
-1.97225e-13
3.7752e-08
1.4944e-13
3.7752e-08
-1.16138e-13
3.7752e-08
1.01331e-13
3.7752e-08
-4.5962e-14
9.36126e-14
3.11469e-08
2.59023e-10
3.12481e-08
2.63344e-10
3.1268e-08
4.02945e-11
3.12751e-08
1.92708e-11
3.12757e-08
-1.85647e-12
3.12762e-08
3.11352e-12
3.1276e-08
-1.99735e-12
3.12761e-08
1.43635e-12
3.1276e-08
-1.15838e-12
3.1276e-08
7.24536e-13
3.1276e-08
-5.04427e-13
3.12761e-08
4.98212e-13
3.1276e-08
-2.98921e-13
3.12761e-08
2.41435e-13
3.1276e-08
-1.77549e-13
3.12761e-08
1.34179e-13
3.1276e-08
-1.04463e-13
3.12761e-08
8.98703e-14
3.12761e-08
-4.64221e-14
7.9748e-14
2.44623e-08
1.69713e-10
2.45592e-08
1.66406e-10
2.45766e-08
2.29156e-11
2.45833e-08
1.26054e-11
2.45834e-08
-2.01123e-12
2.45841e-08
2.47201e-12
2.45837e-08
-1.65906e-12
2.4584e-08
1.19651e-12
2.45837e-08
-9.44276e-13
2.45839e-08
6.11517e-13
2.45838e-08
-4.31502e-13
2.45839e-08
3.99102e-13
2.45838e-08
-2.52025e-13
2.45839e-08
1.99516e-13
2.45839e-08
-1.47508e-13
2.45839e-08
1.1122e-13
2.45839e-08
-8.6612e-14
2.45839e-08
7.35666e-14
2.45839e-08
-4.32963e-14
6.19858e-14
1.761e-08
8.96671e-11
1.76935e-08
8.29346e-11
1.77068e-08
9.58274e-12
1.77126e-08
6.83927e-12
1.77123e-08
-1.70703e-12
1.7713e-08
1.69271e-12
1.77126e-08
-1.17912e-12
1.77129e-08
8.54194e-13
1.77126e-08
-6.59587e-13
1.77128e-08
4.42158e-13
1.77127e-08
-3.15917e-13
1.77128e-08
2.73697e-13
1.77127e-08
-1.81781e-13
1.77128e-08
1.41381e-13
1.77127e-08
-1.0499e-13
1.77128e-08
7.90332e-14
1.77127e-08
-6.14966e-14
1.77128e-08
5.16207e-14
1.77128e-08
-3.45363e-14
4.07678e-14
1.06297e-08
2.8308e-11
1.06891e-08
2.36246e-11
1.06968e-08
1.83451e-12
1.07013e-08
2.31146e-12
1.07005e-08
-8.6365e-13
1.07014e-08
7.40657e-13
1.07008e-08
-5.30538e-13
1.07013e-08
3.8617e-13
1.07009e-08
-2.9249e-13
1.07011e-08
2.02127e-13
1.0701e-08
-1.4592e-13
1.07011e-08
1.1939e-13
1.0701e-08
-8.2806e-14
1.07011e-08
6.35105e-14
1.0701e-08
-4.73188e-14
1.07011e-08
3.563e-14
1.0701e-08
-2.76225e-14
1.07011e-08
2.30455e-14
1.07011e-08
-1.71901e-14
1.6947e-14
3.56038e-09
3.584e-09
3.58584e-09
3.58815e-09
3.58728e-09
3.58802e-09
3.58749e-09
3.58788e-09
3.58759e-09
3.58779e-09
3.58764e-09
3.58776e-09
3.58768e-09
3.58774e-09
3.5877e-09
3.58773e-09
3.5877e-09
3.58773e-09
3.58771e-09
)
;

boundaryField
{
    top
    {
        type            calculated;
        value           uniform 0;
    }
    bottom
    {
        type            symmetryPlane;
        value           uniform 0;
    }
    inlet
    {
        type            calculated;
        value           nonuniform List<scalar> 
20
(
-8.91291e-08
-8.85852e-08
-8.74986e-08
-8.58767e-08
-8.3729e-08
-8.10682e-08
-7.791e-08
-7.4273e-08
-7.01788e-08
-6.56514e-08
-6.07179e-08
-5.54073e-08
-4.97512e-08
-4.37833e-08
-3.75392e-08
-3.10561e-08
-2.4373e-08
-1.75299e-08
-1.05684e-08
-3.53207e-09
)
;
    }
    outlet
    {
        type            calculated;
        value           nonuniform List<scalar> 
20
(
8.88508e-08
8.83144e-08
8.72446e-08
8.56473e-08
8.35313e-08
8.09085e-08
7.77933e-08
7.42032e-08
7.01581e-08
6.56804e-08
6.07951e-08
5.55294e-08
4.99126e-08
4.39758e-08
3.77521e-08
3.12761e-08
2.45839e-08
1.77128e-08
1.07011e-08
3.58773e-09
)
;
    }
    frontAndBack
    {
        type            empty;
        value           nonuniform 0();
    }
}


// ************************************************************************* //
