/*--------------------------------*- C++ -*----------------------------------*\
| =========                 |                                                 |
| \\      /  F ield         | OpenFOAM: The Open Source CFD Toolbox           |
|  \\    /   O peration     | Version:  5.0                                   |
|   \\  /    A nd           | Web:      www.OpenFOAM.org                      |
|    \\/     M anipulation  |                                                 |
\*---------------------------------------------------------------------------*/
FoamFile
{
    version     2.0;
    format      ascii;
    class       volScalarField;
    location    "0.3";
    object      shearRate;
}
// * * * * * * * * * * * * * * * * * * * * * * * * * * * * * * * * * * * * * //

dimensions      [0 0 -1 0 0 0 0];

internalField   nonuniform List<scalar> 
50
(
2.01788
2.01769
2.01821
2.01762
2.03452
2.0471
3.80781
3.90282
3.93175
3.98384
6.05356
6.05297
6.05455
6.05205
6.08284
6.06387
7.71231
7.83738
7.87396
7.93527
10.089
10.088
10.0907
10.0852
10.1076
10.0775
9.83829
9.84867
9.85836
9.86596
14.124
14.1227
14.1266
14.1175
14.1332
14.0946
13.8447
13.8029
13.8037
13.7927
18.1587
18.1569
18.1625
18.1491
18.1658
18.1221
17.8347
17.7483
17.7463
17.7217
)
;

boundaryField
{
    top
    {
        type            zeroGradient;
    }
    bottom
    {
        type            symmetryPlane;
    }
    inlet
    {
        type            zeroGradient;
    }
    outlet
    {
        type            zeroGradient;
    }
    frontAndBack
    {
        type            empty;
    }
}


// ************************************************************************* //
