/*--------------------------------*- C++ -*----------------------------------*\
| =========                 |                                                 |
| \\      /  F ield         | OpenFOAM: The Open Source CFD Toolbox           |
|  \\    /   O peration     | Version:  5.0                                   |
|   \\  /    A nd           | Web:      www.OpenFOAM.org                      |
|    \\/     M anipulation  |                                                 |
\*---------------------------------------------------------------------------*/
FoamFile
{
    version     2.0;
    format      ascii;
    class       volVectorField;
    location    "0.3";
    object      U;
}
// * * * * * * * * * * * * * * * * * * * * * * * * * * * * * * * * * * * * * //

dimensions      [0 1 -1 0 0 0 0];

internalField   nonuniform List<vector> 
400
(
(0.00178271 1.09712e-07 -4.14897e-29)
(0.00177786 1.27702e-07 -2.54655e-28)
(0.00177772 2.96935e-08 -1.81936e-28)
(0.00177687 1.02893e-08 0)
(0.00177718 1.46177e-09 0)
(0.0017769 5.46895e-10 1.88352e-28)
(0.0017771 -7.3443e-11 1.87325e-28)
(0.00177696 7.17138e-11 -1.86863e-28)
(0.00177706 -9.00781e-11 -1.86879e-28)
(0.00177698 2.53562e-11 0)
(0.00177704 -2.61459e-12 7.65637e-31)
(0.001777 4.55683e-11 0)
(0.00177703 -9.38051e-12 0)
(0.00177701 1.48557e-11 0)
(0.00177702 -9.64838e-12 0)
(0.00177701 6.96004e-12 1.8943e-28)
(0.00177702 -5.58215e-12 -1.32635e-31)
(0.00177701 6.3729e-12 8.20914e-43)
(0.00177702 5.81969e-13 -1.68983e-50)
(0.00177702 7.7333e-12 -1.90289e-28)
(0.00177181 3.28501e-07 -9.78323e-42)
(0.00176709 3.8039e-07 -9.49311e-29)
(0.00176698 8.75493e-08 2.2238e-29)
(0.00176614 3.08679e-08 -1.5839e-28)
(0.00176646 4.09225e-09 0)
(0.00176618 1.78855e-09 0)
(0.00176637 -3.47499e-10 -3.79104e-30)
(0.00176623 3.00848e-10 3.24944e-28)
(0.00176633 -3.36525e-10 2.06337e-30)
(0.00176626 1.1872e-10 -3.22521e-28)
(0.00176631 -4.77321e-11 -1.61655e-28)
(0.00176627 1.67628e-10 -1.62193e-28)
(0.0017663 -3.98203e-11 0)
(0.00176628 6.06623e-11 0)
(0.0017663 -3.69467e-11 -1.61888e-28)
(0.00176628 3.02178e-11 -4.94233e-31)
(0.00176629 -2.1209e-11 1.61333e-28)
(0.00176629 2.34102e-11 1.61494e-28)
(0.00176629 -1.66413e-12 -1.29142e-31)
(0.00176629 2.48885e-11 -1.62223e-28)
(0.00175008 5.39895e-07 -4.60993e-29)
(0.00174561 6.21188e-07 8.14308e-28)
(0.00174555 1.41456e-07 1.65094e-28)
(0.00174474 5.09058e-08 -1.59917e-28)
(0.00174506 6.11743e-09 -1.62608e-28)
(0.00174478 3.26826e-09 9.78984e-31)
(0.00174497 -8.44912e-10 -4.6579e-31)
(0.00174483 6.91646e-10 1.61622e-28)
(0.00174494 -6.95931e-10 1.18653e-31)
(0.00174486 3.01835e-10 -1.61158e-28)
(0.00174492 -1.53634e-10 1.61655e-28)
(0.00174488 3.31679e-10 3.28155e-32)
(0.00174491 -1.11954e-10 -1.616e-28)
(0.00174488 1.30452e-10 -1.61393e-28)
(0.0017449 -8.57609e-11 3.23067e-28)
(0.00174489 6.72437e-11 1.61517e-28)
(0.0017449 -4.96048e-11 -3.23067e-28)
(0.00174489 5.03571e-11 4.5961e-32)
(0.00174489 -1.1701e-11 3.18924e-32)
(0.00174489 4.96623e-11 -4.59495e-32)
(0.00171764 7.35664e-07 -5.00343e-28)
(0.00171354 8.42811e-07 1.25161e-27)
(0.00171356 1.90126e-07 -3.29736e-28)
(0.00171279 6.91781e-08 -2.18581e-28)
(0.00171311 7.77056e-09 1.62596e-28)
(0.00171284 4.69273e-09 1.63772e-28)
(0.00171303 -1.3687e-09 1.60206e-28)
(0.00171289 1.09421e-09 1.30135e-30)
(0.00171299 -1.06487e-09 -1.61822e-28)
(0.00171292 4.87509e-10 1.6187e-28)
(0.00171297 -2.67348e-10 1.60524e-28)
(0.00171293 5.0197e-10 -3.24478e-31)
(0.00171296 -1.83693e-10 -3.96059e-31)
(0.00171294 2.03e-10 2.13698e-31)
(0.00171295 -1.34913e-10 -4.89822e-31)
(0.00171294 1.05303e-10 -1.08324e-31)
(0.00171295 -7.77466e-11 1.61457e-28)
(0.00171294 7.7364e-11 -1.61331e-28)
(0.00171295 -2.02185e-11 -1.57624e-31)
(0.00171295 7.51081e-11 3.2443e-28)
(0.00167469 9.0999e-07 1.5584e-27)
(0.00167106 1.03885e-06 -1.19328e-27)
(0.00167118 2.32015e-07 -4.93732e-28)
(0.00167046 8.49394e-08 -8.98382e-29)
(0.00167079 9.04335e-09 3.19658e-28)
(0.00167052 5.96186e-09 1.60694e-28)
(0.00167071 -1.87054e-09 0)
(0.00167057 1.47281e-09 -1.50254e-30)
(0.00167067 -1.41078e-09 0)
(0.0016706 6.63813e-10 3.22521e-28)
(0.00167065 -3.74361e-10 -6.57775e-31)
(0.00167061 6.62373e-10 -3.7084e-31)
(0.00167064 -2.55108e-10 1.61586e-28)
(0.00167062 2.70393e-10 -8.05152e-43)
(0.00167063 -1.82117e-10 1.85814e-31)
(0.00167062 1.42092e-10 -1.61358e-28)
(0.00167063 -1.05968e-10 1.61527e-28)
(0.00167063 1.03572e-10 1.61403e-28)
(0.00167063 -2.71496e-11 -8.42607e-32)
(0.00167063 1.0207e-10 5.98929e-32)
(0.00162147 1.05781e-06 -9.20902e-29)
(0.00161842 1.20323e-06 -1.73557e-27)
(0.00161865 2.65578e-07 3.19802e-28)
(0.001618 9.76843e-08 3.94827e-29)
(0.00161833 9.84091e-09 -1.62565e-28)
(0.00161806 7.05842e-09 -4.07155e-30)
(0.00161825 -2.35547e-09 5.04256e-30)
(0.00161811 1.83018e-09 -3.50448e-30)
(0.00161821 -1.73453e-09 0)
(0.00161814 8.28125e-10 1.60479e-28)
(0.00161819 -4.78435e-10 -1.59333e-28)
(0.00161815 8.13116e-10 -1.60943e-28)
(0.00161818 -3.21431e-10 1.62021e-28)
(0.00161816 3.33814e-10 -1.6116e-28)
(0.00161818 -2.26302e-10 1.62189e-28)
(0.00161817 1.75495e-10 1.61355e-28)
(0.00161817 -1.31164e-10 -1.61581e-28)
(0.00161817 1.27779e-10 -2.01362e-31)
(0.00161817 -3.20668e-11 -1.61426e-28)
(0.00161817 1.26946e-10 -1.62172e-28)
(0.00155831 1.17464e-06 -6.12016e-42)
(0.00155592 1.33066e-06 8.77783e-28)
(0.00155627 2.89603e-07 -4.64037e-30)
(0.00155568 1.0702e-07 -8.51293e-29)
(0.00155602 1.01015e-08 8.197e-30)
(0.00155576 7.9712e-09 -1.60698e-28)
(0.00155595 -2.82741e-09 -1.56082e-28)
(0.00155581 2.16793e-09 3.2006e-28)
(0.00155591 -2.03353e-09 1.63187e-28)
(0.00155584 9.88234e-10 -3.22522e-28)
(0.00155589 -5.82206e-10 1.64437e-28)
(0.00155585 9.51793e-10 1.61887e-28)
(0.00155588 -3.8861e-10 1.61836e-28)
(0.00155586 3.92798e-10 -1.61768e-28)
(0.00155587 -2.68569e-10 -3.23106e-28)
(0.00155586 2.08633e-10 4.84284e-28)
(0.00155587 -1.56968e-10 2.15344e-39)
(0.00155587 1.50885e-10 -1.61494e-28)
(0.00155587 -3.68691e-11 1.61614e-28)
(0.00155587 1.52567e-10 -1.54043e-31)
(0.00148557 1.25675e-06 9.8887e-28)
(0.0014839 1.41697e-06 6.2497e-28)
(0.00148439 3.03304e-07 -1.63392e-28)
(0.00148387 1.12677e-07 8.7576e-29)
(0.00148421 9.80757e-09 1.62527e-28)
(0.00148396 8.68076e-09 -1.55508e-28)
(0.00148414 -3.27539e-09 -1.65564e-28)
(0.00148401 2.48088e-09 1.68397e-28)
(0.00148411 -2.30227e-09 1.63417e-28)
(0.00148403 1.13732e-09 1.08852e-30)
(0.00148409 -6.83921e-10 1.58399e-28)
(0.00148405 1.07458e-09 1.61973e-28)
(0.00148408 -4.50968e-10 -1.62159e-28)
(0.00148406 4.46654e-10 -7.5834e-31)
(0.00148407 -3.07678e-10 1.60983e-28)
(0.00148406 2.37649e-10 1.61721e-28)
(0.00148407 -1.79271e-10 1.43465e-39)
(0.00148406 1.71745e-10 -1.61366e-28)
(0.00148407 -4.14753e-11 1.61625e-28)
(0.00148406 1.74065e-10 3.24344e-28)
(0.00140368 1.30136e-06 -1.07991e-27)
(0.00140278 1.45925e-06 -1.12877e-27)
(0.0014034 3.06317e-07 1.62932e-28)
(0.00140296 1.1454e-07 4.29422e-29)
(0.0014033 8.978e-09 -1.62508e-28)
(0.00140306 9.17925e-09 -5.62825e-30)
(0.00140324 -3.69196e-09 1.58124e-28)
(0.00140311 2.763e-09 -2.77725e-30)
(0.0014032 -2.53413e-09 -1.6182e-28)
(0.00140313 1.27769e-09 3.22523e-28)
(0.00140318 -7.83242e-10 1.61654e-28)
(0.00140315 1.17864e-09 -6.80654e-31)
(0.00140317 -5.11617e-10 -3.23172e-28)
(0.00140315 4.94039e-10 -1.60585e-28)
(0.00140317 -3.43039e-10 3.23426e-28)
(0.00140316 2.65076e-10 1.61337e-28)
(0.00140316 -2.01011e-10 -1.61493e-28)
(0.00140316 1.90159e-10 -3.23128e-28)
(0.00140316 -4.66208e-11 1.61394e-28)
(0.00140316 1.94351e-10 3.24574e-28)
(0.00131313 1.30682e-06 -1.13678e-27)
(0.00131302 1.456e-06 -1.1256e-27)
(0.00131377 2.98756e-07 1.62463e-28)
(0.0013134 1.12657e-07 1.78103e-40)
(0.00131374 7.66596e-09 -1.75674e-28)
(0.00131351 9.45961e-09 -3.56845e-40)
(0.00131368 -4.06147e-09 -1.70896e-28)
(0.00131355 3.00747e-09 -3.10964e-30)
(0.00131365 -2.72285e-09 3.21604e-28)
(0.00131358 1.4028e-09 -1.59853e-28)
(0.00131363 -8.76495e-10 -1.60259e-28)
(0.00131359 1.25939e-09 1.61375e-28)
(0.00131362 -5.65683e-10 3.23539e-28)
(0.0013136 5.33971e-10 -1.61439e-28)
(0.00131361 -3.73842e-10 -3.23105e-28)
(0.0013136 2.8752e-10 1.61468e-28)
(0.00131361 -2.18857e-10 -5.15561e-46)
(0.00131361 2.05521e-10 1.61646e-28)
(0.00131361 -5.26541e-11 1.61514e-28)
(0.00131361 2.09171e-10 7.20415e-40)
(0.00121446 1.27274e-06 -1.06424e-27)
(0.00121512 1.4074e-06 0)
(0.00121598 2.81222e-07 2.84504e-28)
(0.00121569 1.07248e-07 1.94758e-28)
(0.00121603 5.96002e-09 -1.62474e-28)
(0.00121581 9.5257e-09 1.66986e-28)
(0.00121597 -4.37123e-09 -4.85866e-30)
(0.00121585 3.20566e-09 -1.54197e-28)
(0.00121594 -2.86108e-09 1.59571e-28)
(0.00121587 1.51075e-09 1.78648e-40)
(0.00121592 -9.62071e-10 -4.64722e-30)
(0.00121589 1.31501e-09 -4.29988e-39)
(0.00121591 -6.13362e-10 -3.2359e-28)
(0.00121589 5.6471e-10 -5.21393e-31)
(0.00121591 -3.98481e-10 3.22714e-28)
(0.0012159 3.06033e-10 1.61618e-28)
(0.00121591 -2.33897e-10 -7.17323e-40)
(0.0012159 2.1695e-10 -3.22822e-28)
(0.0012159 -5.94216e-11 7.18808e-40)
(0.0012159 2.20004e-10 3.24613e-28)
(0.00110825 1.20023e-06 9.96581e-28)
(0.00110965 1.31541e-06 1.5535e-28)
(0.0011106 2.54825e-07 3.23139e-28)
(0.00111038 9.86926e-08 -1.59907e-28)
(0.00111071 3.98052e-09 -1.45774e-28)
(0.0011105 9.38095e-09 1.54204e-28)
(0.00111066 -4.60175e-09 1.0603e-29)
(0.00111054 3.34822e-09 -3.77386e-30)
(0.00111063 -2.94184e-09 2.45807e-30)
(0.00111056 1.59587e-09 1.59496e-28)
(0.00111061 -1.03418e-09 -1.59947e-28)
(0.00111057 1.34046e-09 -1.62286e-28)
(0.0011106 -6.51654e-10 1.62068e-28)
(0.00111058 5.8511e-10 -1.60303e-28)
(0.00111059 -4.165e-10 4.26928e-31)
(0.00111058 3.18905e-10 -1.66405e-31)
(0.00111059 -2.44927e-10 6.99929e-43)
(0.00111059 2.24346e-10 1.61138e-28)
(0.00111059 -6.74832e-11 -1.61674e-28)
(0.00111059 2.24997e-10 -1.62048e-28)
(0.00099513 1.09202e-06 -4.57667e-29)
(0.0009972 1.18404e-06 -1.54837e-28)
(0.000998211 2.21177e-07 4.02424e-28)
(0.000998048 8.75265e-08 -1.86583e-29)
(0.00099836 1.87888e-09 -3.24905e-28)
(0.000998163 9.03273e-09 -6.71953e-30)
(0.000998316 -4.73234e-09 1.14603e-29)
(0.000998204 3.42184e-09 -4.10411e-30)
(0.000998286 -2.95588e-09 1.6448e-28)
(0.000998225 1.64974e-09 -3.49691e-43)
(0.000998269 -1.08873e-09 3.71947e-30)
(0.000998237 1.33414e-09 9.7986e-31)
(0.000998261 -6.76181e-10 1.62144e-28)
(0.000998244 5.92822e-10 6.1462e-31)
(0.000998256 -4.25177e-10 -1.61552e-28)
(0.000998247 3.24362e-10 3.22748e-28)
(0.000998254 -2.49812e-10 -1.61623e-28)
(0.000998249 2.26184e-10 -1.61685e-28)
(0.000998252 -7.55023e-11 1.61514e-28)
(0.000998251 2.22916e-10 -7.20419e-40)
(0.000875772 9.5271e-07 7.24733e-28)
(0.000878398 1.01948e-06 0)
(0.000879434 1.82358e-07 1.60868e-28)
(0.000879321 7.44195e-08 -1.58599e-29)
(0.000879616 -1.72205e-10 -1.62449e-28)
(0.000879433 8.48794e-09 -1.53839e-28)
(0.000879575 -4.73996e-09 -3.60588e-40)
(0.000879471 3.41277e-09 1.65507e-28)
(0.000879547 -2.89439e-09 1.5896e-28)
(0.00087949 1.66727e-09 3.49672e-43)
(0.000879532 -1.11758e-09 -3.5052e-43)
(0.000879502 1.29085e-09 -2.08111e-30)
(0.000879524 -6.86263e-10 1.60943e-28)
(0.000879508 5.86112e-10 -1.97838e-30)
(0.00087952 -4.23977e-10 -3.23603e-28)
(0.000879512 3.23068e-10 3.22722e-28)
(0.000879517 -2.50177e-10 1.33973e-31)
(0.000879514 2.22654e-10 -1.61288e-28)
(0.000879516 -8.39303e-11 1.98676e-31)
(0.000879515 2.15355e-10 -1.62224e-28)
(0.000750889 7.88959e-07 4.26965e-28)
(0.000753916 8.30327e-07 1.56606e-29)
(0.000754934 1.40882e-07 0)
(0.000754862 6.01528e-08 2.15834e-44)
(0.000755132 -1.98207e-09 1.83882e-28)
(0.000754966 7.74816e-09 -3.53411e-45)
(0.000755096 -4.59574e-09 -1.81304e-40)
(0.000755 3.30187e-09 1.61086e-28)
(0.00075507 -2.74655e-09 1.64816e-44)
(0.000755018 1.63273e-09 -1.61264e-28)
(0.000755056 -1.11303e-09 -3.23302e-28)
(0.000755029 1.20941e-09 1.60273e-28)
(0.000755049 -6.72714e-10 -7.13167e-40)
(0.000755034 5.61997e-10 -2.15227e-39)
(0.000755045 -4.09262e-10 1.61552e-28)
(0.000755038 3.10296e-10 -1.61469e-28)
(0.000755043 -2.40611e-10 1.61727e-28)
(0.000755039 2.11775e-10 -7.17175e-40)
(0.000755042 -8.99371e-11 7.17964e-40)
(0.000755041 1.98661e-10 1.62225e-28)
(0.000621228 6.09541e-07 -2.67222e-28)
(0.000624453 6.27536e-07 -1.53729e-28)
(0.000625405 9.95757e-08 1.40578e-43)
(0.000625362 4.55683e-08 -1.91503e-28)
(0.000625602 -3.35539e-09 -1.6246e-28)
(0.000625455 6.81253e-09 -7.60845e-30)
(0.00062557 -4.27225e-09 1.79228e-40)
(0.000625485 3.06957e-09 1.55883e-28)
(0.000625547 -2.49992e-09 1.6515e-28)
(0.000625501 1.53942e-09 -3.49693e-43)
(0.000625534 -1.06393e-09 -1.64012e-28)
(0.00062551 1.08273e-09 1.20101e-30)
(0.000625529 -6.35612e-10 3.24058e-28)
(0.000625515 5.18091e-10 1.55213e-30)
(0.000625525 -3.80133e-10 -3.2251e-28)
(0.000625518 2.87909e-10 0)
(0.000625523 -2.2442e-10 -1.54779e-31)
(0.00062552 1.93783e-10 1.61247e-28)
(0.000625522 -9.44277e-11 -2.57795e-31)
(0.000625521 1.75816e-10 -1.62225e-28)
(0.000487564 4.25256e-07 -4.55039e-29)
(0.000490733 4.24419e-07 -1.53577e-28)
(0.000491568 6.14718e-08 1.27003e-28)
(0.000491544 3.14975e-08 2.78788e-29)
(0.000491746 -4.07653e-09 -3.49854e-28)
(0.000491621 5.64789e-09 0)
(0.000491718 -3.72113e-09 -7.98377e-30)
(0.000491647 2.6788e-09 5.91387e-30)
(0.000491699 -2.13561e-09 1.61811e-28)
(0.00049166 1.36077e-09 1.61264e-28)
(0.000491688 -9.55254e-10 -1.6165e-28)
(0.000491668 9.11183e-10 -1.60023e-28)
(0.000491684 -5.61053e-10 1.60483e-28)
(0.000491673 4.48102e-10 -8.90651e-31)
(0.000491681 -3.3038e-10 -1.62232e-28)
(0.000491675 2.4935e-10 1.61885e-28)
(0.000491679 -1.93802e-10 3.59365e-40)
(0.000491676 1.65947e-10 2.91328e-31)
(0.000491678 -9.15337e-11 1.6184e-28)
(0.000491678 1.43474e-10 -3.60212e-40)
(0.000350704 2.50602e-07 0)
(0.000353504 2.38446e-07 -8.00608e-28)
(0.000354167 2.9969e-08 -1.60805e-28)
(0.000354153 1.8761e-08 -6.62532e-29)
(0.000354309 -3.90696e-09 0)
(0.000354212 4.19069e-09 0)
(0.000354287 -2.87836e-09 1.6968e-28)
(0.000354232 2.08111e-09 3.58744e-40)
(0.000354272 -1.62116e-09 -3.15772e-43)
(0.000354241 1.07161e-09 1.39873e-42)
(0.000354264 -7.60953e-10 -7.16427e-40)
(0.000354248 6.76428e-10 1.62596e-28)
(0.00035426 -4.41318e-10 -7.17572e-40)
(0.000354252 3.45718e-10 0)
(0.000354258 -2.56516e-10 9.16794e-47)
(0.000354253 1.92998e-10 -1.6147e-28)
(0.000354257 -1.50808e-10 -2.73365e-31)
(0.000354254 1.26673e-10 -3.58589e-40)
(0.000354256 -8.0921e-11 -1.61513e-28)
(0.000354256 1.02965e-10 -3.60212e-40)
(0.000211472 1.08632e-07 0)
(0.000213527 9.53881e-08 2.51471e-27)
(0.000213965 9.02384e-09 -1.61329e-28)
(0.000213956 8.48396e-09 -1.53441e-28)
(0.000214057 -2.71355e-09 0)
(0.000213993 2.44058e-09 -1.60666e-28)
(0.000214042 -1.73255e-09 -7.02597e-43)
(0.000214006 1.25761e-09 1.61094e-28)
(0.000214032 -9.60835e-10 1.61809e-28)
(0.000214012 6.55055e-10 1.61265e-28)
(0.000214027 -4.7159e-10 -1.0431e-30)
(0.000214017 3.96206e-10 -1.61381e-28)
(0.000214024 -2.68785e-10 -7.17579e-40)
(0.000214019 2.07196e-10 7.35143e-43)
(0.000214023 -1.53988e-10 -1.61551e-28)
(0.00021402 1.15982e-10 3.22854e-28)
(0.000214022 -8.96496e-11 -4.04106e-32)
(0.000214021 7.54081e-11 -1.61573e-28)
(0.000214021 -5.30882e-11 1.61272e-28)
(0.000214021 5.74147e-11 -2.1978e-31)
(7.0714e-05 2.78185e-08 -6.29576e-29)
(7.15749e-05 2.26751e-08 7.22317e-28)
(7.17359e-05 1.48609e-09 2.73776e-28)
(7.17309e-05 2.2754e-09 -1.54805e-28)
(7.17679e-05 -9.20177e-10 -1.12857e-28)
(7.17437e-05 7.66641e-10 -1.51459e-30)
(7.17622e-05 -5.52732e-10 7.42641e-31)
(7.17486e-05 4.02676e-10 -4.81673e-31)
(7.17585e-05 -3.045e-10 9.74273e-43)
(7.17509e-05 2.11055e-10 1.11948e-28)
(7.17564e-05 -1.51711e-10 0)
(7.17526e-05 1.23212e-10 0)
(7.17556e-05 -8.69266e-11 1.08035e-31)
(7.17534e-05 6.63778e-11 0)
(7.1755e-05 -4.95888e-11 -1.12082e-28)
(7.17539e-05 3.71347e-11 1.12091e-28)
(7.17546e-05 -2.92348e-11 -1.1213e-28)
(7.17541e-05 2.39357e-11 -1.12068e-28)
(7.17545e-05 -1.83496e-11 2.24241e-28)
(7.17544e-05 1.78011e-11 0)
)
;

boundaryField
{
    top
    {
        type            fixedValue;
        value           uniform (0 0 0);
    }
    bottom
    {
        type            symmetryPlane;
    }
    inlet
    {
        type            pressureInletVelocity;
        value           nonuniform List<vector> 
20
(
(0.00178258 0 0)
(0.0017717 0 0)
(0.00174997 0 0)
(0.00171753 0 0)
(0.00167458 0 0)
(0.00162136 0 0)
(0.0015582 0 0)
(0.00148546 0 0)
(0.00140358 0 0)
(0.00131303 0 0)
(0.00121436 0 0)
(0.00110815 0 0)
(0.000995025 0 0)
(0.000875667 0 0)
(0.000750784 0 0)
(0.000621122 0 0)
(0.000487459 0 0)
(0.000350599 0 0)
(0.000211368 0 0)
(7.06414e-05 0 0)
)
;
    }
    outlet
    {
        type            inletOutlet;
        inletValue      uniform (1 0 0);
        value           nonuniform List<vector> 
20
(
(0.00177702 7.7333e-12 -1.90289e-28)
(0.00176629 2.48885e-11 -1.62223e-28)
(0.00174489 4.96623e-11 -4.59495e-32)
(0.00171295 7.51081e-11 3.2443e-28)
(0.00167063 1.0207e-10 5.98929e-32)
(0.00161817 1.26946e-10 -1.62172e-28)
(0.00155587 1.52567e-10 -1.54043e-31)
(0.00148406 1.74065e-10 3.24344e-28)
(0.00140316 1.94351e-10 3.24574e-28)
(0.00131361 2.09171e-10 7.20415e-40)
(0.0012159 2.20004e-10 3.24613e-28)
(0.00111059 2.24997e-10 -1.62048e-28)
(0.000998251 2.22916e-10 -7.20419e-40)
(0.000879515 2.15355e-10 -1.62224e-28)
(0.000755041 1.98661e-10 1.62225e-28)
(0.000625521 1.75816e-10 -1.62225e-28)
(0.000491678 1.43474e-10 -3.60212e-40)
(0.000354256 1.02965e-10 -3.60212e-40)
(0.000214021 5.74147e-11 -2.1978e-31)
(7.17544e-05 1.78011e-11 0)
)
;
    }
    frontAndBack
    {
        type            empty;
    }
}


// ************************************************************************* //
