/*--------------------------------*- C++ -*----------------------------------*\
| =========                 |                                                 |
| \\      /  F ield         | OpenFOAM: The Open Source CFD Toolbox           |
|  \\    /   O peration     | Version:  5.0                                   |
|   \\  /    A nd           | Web:      www.OpenFOAM.org                      |
|    \\/     M anipulation  |                                                 |
\*---------------------------------------------------------------------------*/
FoamFile
{
    version     2.0;
    format      ascii;
    class       volScalarField;
    location    "180";
    object      p;
}
// * * * * * * * * * * * * * * * * * * * * * * * * * * * * * * * * * * * * * //

dimensions      [0 2 -2 0 0 0 0];

internalField   nonuniform List<scalar> 
1568
(
1.39493e-13
4.16137e-14
3.50262e-13
2.13459e-13
3.29318e-13
5.47872e-13
5.61235e-13
5.97409e-13
6.65133e-13
7.11387e-13
7.49382e-13
7.97054e-13
8.4685e-13
8.92114e-13
9.34461e-13
9.79519e-13
1.02256e-12
1.06869e-12
1.11279e-12
1.16228e-12
1.20948e-12
1.26184e-12
1.30068e-12
1.33958e-12
1.37506e-12
1.43504e-12
1.50935e-12
1.60238e-12
1.67115e-12
1.72894e-12
1.75778e-12
1.79134e-12
1.822e-12
1.87315e-12
1.91174e-12
1.95845e-12
1.99064e-12
2.03439e-12
2.06701e-12
2.10371e-12
2.13192e-12
2.16785e-12
2.19563e-12
2.23173e-12
2.26368e-12
2.30081e-12
2.33481e-12
2.37262e-12
2.41087e-12
2.45774e-12
2.49954e-12
2.56482e-12
2.66264e-12
2.6902e-12
2.85695e-12
2.96495e-12
7.39279e-14
-3.09681e-12
2.72393e-12
1.09749e-12
-5.31984e-13
9.42791e-13
8.39101e-13
5.98046e-13
7.87476e-13
9.11975e-13
9.0462e-13
9.24148e-13
9.67742e-13
1.00439e-12
1.05693e-12
1.11258e-12
1.1518e-12
1.21635e-12
1.26125e-12
1.31519e-12
1.34261e-12
1.4091e-12
1.42371e-12
1.4628e-12
1.4612e-12
1.53262e-12
1.53596e-12
1.60344e-12
1.58341e-12
1.69836e-12
1.70471e-12
1.75967e-12
1.7088e-12
1.77552e-12
1.76466e-12
1.85692e-12
1.83312e-12
1.91089e-12
1.90435e-12
1.95598e-12
1.97081e-12
2.05531e-12
2.05804e-12
2.09841e-12
2.10407e-12
2.15656e-12
2.1763e-12
2.22574e-12
2.26419e-12
2.34966e-12
2.3906e-12
2.45278e-12
2.63523e-12
2.20709e-12
2.97809e-12
2.90049e-12
4.02538e-13
1.15101e-12
-5.84916e-13
-3.17285e-14
-5.46212e-14
6.72227e-13
4.77283e-13
4.37173e-13
5.5292e-13
4.95677e-13
6.2203e-13
7.32533e-13
7.35924e-13
7.7815e-13
8.34899e-13
8.43192e-13
8.91182e-13
9.31332e-13
9.86145e-13
1.02233e-12
1.08481e-12
1.14905e-12
1.24704e-12
1.3023e-12
1.39331e-12
1.42843e-12
1.48619e-12
1.5349e-12
1.62003e-12
1.64782e-12
1.7178e-12
1.82253e-12
2.00013e-12
2.06155e-12
2.1105e-12
2.12756e-12
2.20149e-12
2.20417e-12
2.24912e-12
2.27724e-12
2.2677e-12
2.22179e-12
2.28133e-12
2.31051e-12
2.36827e-12
2.40068e-12
2.44168e-12
2.4931e-12
2.52319e-12
2.51509e-12
2.57818e-12
2.45675e-12
2.94373e-12
2.76327e-12
2.66406e-12
2.78723e-12
3.13526e-13
1.09226e-12
1.09868e-12
2.26484e-13
8.59554e-13
1.18258e-12
8.1333e-13
8.74521e-13
1.13072e-12
1.16508e-12
1.12244e-12
1.12697e-12
1.18057e-12
1.25593e-12
1.26692e-12
1.31743e-12
1.35813e-12
1.38031e-12
1.38765e-12
1.44089e-12
1.45582e-12
1.47529e-12
1.47085e-12
1.49583e-12
1.50395e-12
1.54756e-12
1.56572e-12
1.61318e-12
1.63146e-12
1.66245e-12
1.64908e-12
1.61418e-12
1.56616e-12
1.55203e-12
1.57247e-12
1.60242e-12
1.627e-12
1.66823e-12
1.68395e-12
1.74565e-12
1.80732e-12
1.8844e-12
1.91664e-12
1.94817e-12
1.9701e-12
2.00007e-12
2.01165e-12
2.06486e-12
2.13474e-12
2.17372e-12
2.26102e-12
2.33973e-12
2.4342e-12
2.1279e-12
2.83459e-12
2.73066e-12
3.38977e-13
-2.37969e-13
3.38669e-13
3.89333e-13
9.129e-13
8.68802e-13
6.9307e-13
8.36637e-13
9.50915e-13
9.83794e-13
9.96141e-13
1.03698e-12
1.07627e-12
1.10255e-12
1.12476e-12
1.16976e-12
1.21463e-12
1.26137e-12
1.30226e-12
1.33932e-12
1.36769e-12
1.39432e-12
1.42377e-12
1.45752e-12
1.48285e-12
1.51958e-12
1.55431e-12
1.57244e-12
1.59444e-12
1.62534e-12
1.6617e-12
1.68935e-12
1.71181e-12
1.7323e-12
1.78173e-12
1.81291e-12
1.82922e-12
1.85556e-12
1.88076e-12
1.90152e-12
1.92047e-12
1.9417e-12
1.95853e-12
1.98175e-12
2.01275e-12
2.04516e-12
2.08375e-12
2.13208e-12
2.14568e-12
2.23035e-12
2.33242e-12
2.08451e-12
2.46494e-12
2.72666e-12
2.39924e-12
2.60019e-12
5.49996e-13
5.83848e-13
7.60102e-13
8.90425e-13
8.25077e-13
6.14945e-13
7.2965e-13
9.0944e-13
8.84196e-13
8.776e-13
9.34728e-13
9.97138e-13
1.0346e-12
1.07459e-12
1.11639e-12
1.14119e-12
1.16282e-12
1.19226e-12
1.22743e-12
1.2538e-12
1.28684e-12
1.33288e-12
1.37446e-12
1.41106e-12
1.444e-12
1.4754e-12
1.51522e-12
1.55747e-12
1.59581e-12
1.6378e-12
1.67622e-12
1.72122e-12
1.77642e-12
1.81854e-12
1.84342e-12
1.86782e-12
1.89311e-12
1.92439e-12
1.95196e-12
1.97707e-12
1.99724e-12
2.02155e-12
2.04832e-12
2.0702e-12
2.10411e-12
2.13519e-12
2.15422e-12
2.20538e-12
2.24544e-12
2.21843e-12
2.3143e-12
2.42819e-12
2.41122e-12
2.02622e-12
2.60133e-12
2.53912e-12
6.47625e-13
8.99651e-13
8.70698e-13
8.38238e-13
8.30844e-13
8.32739e-13
9.6607e-13
1.06016e-12
1.05832e-12
1.06504e-12
1.11696e-12
1.15511e-12
1.17492e-12
1.19982e-12
1.22934e-12
1.2596e-12
1.28812e-12
1.31116e-12
1.33656e-12
1.36596e-12
1.39581e-12
1.41967e-12
1.44296e-12
1.46781e-12
1.49652e-12
1.52226e-12
1.55015e-12
1.57585e-12
1.60406e-12
1.62692e-12
1.63771e-12
1.64863e-12
1.67265e-12
1.69185e-12
1.70511e-12
1.72278e-12
1.75471e-12
1.77874e-12
1.80099e-12
1.82832e-12
1.8605e-12
1.88911e-12
1.91657e-12
1.94518e-12
1.9785e-12
1.99983e-12
2.02254e-12
2.07595e-12
2.07942e-12
2.10377e-12
2.25087e-12
2.06967e-12
2.28398e-12
2.54252e-12
2.35892e-12
2.40872e-12
7.17721e-13
8.04498e-13
7.36499e-13
7.68781e-13
9.45832e-13
1.00244e-12
1.0392e-12
1.06404e-12
1.09154e-12
1.10785e-12
1.15735e-12
1.19062e-12
1.21264e-12
1.23635e-12
1.2612e-12
1.2901e-12
1.3183e-12
1.34316e-12
1.3674e-12
1.39254e-12
1.41464e-12
1.43774e-12
1.45765e-12
1.48031e-12
1.503e-12
1.52707e-12
1.54619e-12
1.56664e-12
1.5897e-12
1.61039e-12
1.63434e-12
1.65711e-12
1.66719e-12
1.68234e-12
1.70791e-12
1.73097e-12
1.74928e-12
1.76841e-12
1.78508e-12
1.80617e-12
1.82604e-12
1.84226e-12
1.85952e-12
1.88277e-12
1.90525e-12
1.92119e-12
1.93975e-12
1.99347e-12
2.02547e-12
2.01995e-12
2.09348e-12
2.13301e-12
2.20525e-12
1.92434e-12
2.32578e-12
2.31843e-12
8.31393e-13
8.81566e-13
8.91454e-13
9.50001e-13
1.0924e-12
1.04155e-12
1.06032e-12
1.10119e-12
1.12449e-12
1.15766e-12
1.19356e-12
1.20193e-12
1.22855e-12
1.26081e-12
1.28318e-12
1.30468e-12
1.32506e-12
1.34733e-12
1.37061e-12
1.39022e-12
1.40997e-12
1.43787e-12
1.45908e-12
1.47932e-12
1.50069e-12
1.52141e-12
1.54248e-12
1.56398e-12
1.58542e-12
1.60424e-12
1.63006e-12
1.65482e-12
1.67636e-12
1.69617e-12
1.7187e-12
1.7369e-12
1.75277e-12
1.76834e-12
1.78575e-12
1.80317e-12
1.82053e-12
1.8374e-12
1.8541e-12
1.87096e-12
1.89153e-12
1.91115e-12
1.9334e-12
1.97222e-12
1.97615e-12
1.99241e-12
2.10349e-12
1.95925e-12
2.10696e-12
2.22252e-12
2.14254e-12
2.20013e-12
9.65399e-13
1.07637e-12
1.03638e-12
1.07737e-12
1.18391e-12
1.09347e-12
1.14347e-12
1.20585e-12
1.2007e-12
1.22448e-12
1.26073e-12
1.27687e-12
1.29538e-12
1.31583e-12
1.33111e-12
1.3526e-12
1.36997e-12
1.38603e-12
1.40306e-12
1.42744e-12
1.44188e-12
1.4549e-12
1.47269e-12
1.4922e-12
1.50758e-12
1.52559e-12
1.54736e-12
1.56908e-12
1.58636e-12
1.60445e-12
1.61776e-12
1.63243e-12
1.64767e-12
1.66556e-12
1.68061e-12
1.69326e-12
1.70978e-12
1.72772e-12
1.74328e-12
1.75814e-12
1.77406e-12
1.79095e-12
1.80465e-12
1.82346e-12
1.84576e-12
1.86019e-12
1.87221e-12
1.91033e-12
1.92323e-12
1.91992e-12
1.99713e-12
1.94826e-12
2.07955e-12
1.92814e-12
2.08827e-12
2.10239e-12
1.08436e-12
1.18927e-12
1.1039e-12
1.16536e-12
1.26693e-12
1.17786e-12
1.22677e-12
1.2883e-12
1.2887e-12
1.29787e-12
1.31504e-12
1.34293e-12
1.35575e-12
1.36491e-12
1.38115e-12
1.39843e-12
1.41455e-12
1.42864e-12
1.44257e-12
1.45414e-12
1.47098e-12
1.48195e-12
1.49695e-12
1.50716e-12
1.52104e-12
1.53456e-12
1.5529e-12
1.5678e-12
1.5836e-12
1.59733e-12
1.60628e-12
1.61731e-12
1.62974e-12
1.64118e-12
1.65307e-12
1.66462e-12
1.67731e-12
1.68964e-12
1.70169e-12
1.71394e-12
1.7274e-12
1.73934e-12
1.74972e-12
1.76411e-12
1.78238e-12
1.78966e-12
1.80235e-12
1.84045e-12
1.83774e-12
1.83149e-12
1.94135e-12
1.84729e-12
1.89654e-12
1.93725e-12
1.98546e-12
1.98953e-12
1.20688e-12
1.30618e-12
1.19971e-12
1.24976e-12
1.35535e-12
1.27414e-12
1.31283e-12
1.35853e-12
1.35114e-12
1.36182e-12
1.37976e-12
1.39166e-12
1.3962e-12
1.40935e-12
1.43062e-12
1.43523e-12
1.44213e-12
1.45519e-12
1.47024e-12
1.47481e-12
1.48885e-12
1.50318e-12
1.51709e-12
1.5297e-12
1.54792e-12
1.55793e-12
1.56e-12
1.55731e-12
1.56296e-12
1.57549e-12
1.59165e-12
1.60653e-12
1.61653e-12
1.62533e-12
1.63447e-12
1.64733e-12
1.65651e-12
1.66513e-12
1.67358e-12
1.68277e-12
1.69198e-12
1.7032e-12
1.71082e-12
1.71999e-12
1.73491e-12
1.73848e-12
1.74537e-12
1.77738e-12
1.77483e-12
1.77262e-12
1.8341e-12
1.73986e-12
1.89062e-12
1.84267e-12
1.80948e-12
1.87346e-12
1.33001e-12
1.41228e-12
1.32203e-12
1.3597e-12
1.44571e-12
1.36558e-12
1.39511e-12
1.43126e-12
1.41591e-12
1.42146e-12
1.44144e-12
1.44902e-12
1.45226e-12
1.46032e-12
1.47001e-12
1.47456e-12
1.48188e-12
1.4914e-12
1.49971e-12
1.50662e-12
1.51129e-12
1.51878e-12
1.5188e-12
1.51734e-12
1.52075e-12
1.5344e-12
1.55386e-12
1.57766e-12
1.59312e-12
1.59305e-12
1.59171e-12
1.5959e-12
1.60244e-12
1.61184e-12
1.619e-12
1.62058e-12
1.62974e-12
1.63757e-12
1.64322e-12
1.64933e-12
1.65613e-12
1.66273e-12
1.66667e-12
1.67032e-12
1.68445e-12
1.68923e-12
1.68895e-12
1.72083e-12
1.71378e-12
1.68041e-12
1.78688e-12
1.73221e-12
1.7006e-12
1.63743e-12
1.82281e-12
1.77116e-12
1.45731e-12
1.53067e-12
1.43047e-12
1.46801e-12
1.53928e-12
1.45364e-12
1.47387e-12
1.5061e-12
1.48989e-12
1.48716e-12
1.49782e-12
1.50167e-12
1.50463e-12
1.50686e-12
1.506e-12
1.5125e-12
1.52046e-12
1.52197e-12
1.52323e-12
1.53028e-12
1.53527e-12
1.54184e-12
1.55101e-12
1.5663e-12
1.57138e-12
1.57144e-12
1.56093e-12
1.55175e-12
1.55304e-12
1.56446e-12
1.57372e-12
1.58181e-12
1.58446e-12
1.58798e-12
1.59602e-12
1.59747e-12
1.60389e-12
1.60667e-12
1.60883e-12
1.6146e-12
1.61938e-12
1.62227e-12
1.62526e-12
1.6265e-12
1.63279e-12
1.63512e-12
1.63237e-12
1.65037e-12
1.64281e-12
1.64649e-12
1.68195e-12
1.52369e-12
1.75216e-12
1.72609e-12
1.58655e-12
1.64447e-12
1.57837e-12
1.63988e-12
1.53839e-12
1.5665e-12
1.63406e-12
1.54037e-12
1.55425e-12
1.5831e-12
1.56309e-12
1.55511e-12
1.55952e-12
1.55931e-12
1.55646e-12
1.55581e-12
1.55593e-12
1.55673e-12
1.55522e-12
1.55257e-12
1.55458e-12
1.5578e-12
1.55832e-12
1.55829e-12
1.5647e-12
1.5739e-12
1.57539e-12
1.57059e-12
1.5655e-12
1.5549e-12
1.55135e-12
1.56016e-12
1.56659e-12
1.56926e-12
1.57122e-12
1.56973e-12
1.57129e-12
1.57698e-12
1.57609e-12
1.57544e-12
1.5773e-12
1.57763e-12
1.5786e-12
1.57875e-12
1.57986e-12
1.5819e-12
1.58498e-12
1.57768e-12
1.5709e-12
1.59284e-12
1.58234e-12
1.53272e-12
1.60839e-12
1.60313e-12
1.5531e-12
1.30684e-12
1.65151e-12
1.54834e-12
1.70572e-12
1.79878e-12
1.64632e-12
1.65739e-12
1.73088e-12
1.62636e-12
1.6355e-12
1.65792e-12
1.63042e-12
1.61917e-12
1.62141e-12
1.61643e-12
1.60794e-12
1.60359e-12
1.60285e-12
1.59875e-12
1.59369e-12
1.59223e-12
1.59013e-12
1.58389e-12
1.58032e-12
1.57951e-12
1.56826e-12
1.55289e-12
1.54434e-12
1.54619e-12
1.5646e-12
1.58203e-12
1.58743e-12
1.57819e-12
1.56374e-12
1.5573e-12
1.55935e-12
1.55868e-12
1.55314e-12
1.55228e-12
1.54789e-12
1.54789e-12
1.54768e-12
1.54331e-12
1.54156e-12
1.53894e-12
1.53159e-12
1.5295e-12
1.53147e-12
1.5229e-12
1.51266e-12
1.52201e-12
1.51042e-12
1.51333e-12
1.51744e-12
1.33993e-12
1.61071e-12
1.56237e-12
1.38866e-12
1.41828e-12
1.8249e-12
1.8688e-12
1.73899e-12
1.76017e-12
1.82745e-12
1.70865e-12
1.71593e-12
1.73441e-12
1.7005e-12
1.68425e-12
1.68014e-12
1.67034e-12
1.65889e-12
1.65092e-12
1.64247e-12
1.63421e-12
1.62708e-12
1.62133e-12
1.61407e-12
1.60793e-12
1.60187e-12
1.59847e-12
1.59534e-12
1.59808e-12
1.59648e-12
1.58911e-12
1.57329e-12
1.55693e-12
1.54742e-12
1.54633e-12
1.54478e-12
1.5457e-12
1.54007e-12
1.53612e-12
1.53072e-12
1.52889e-12
1.5231e-12
1.51939e-12
1.51254e-12
1.50913e-12
1.50409e-12
1.50029e-12
1.49008e-12
1.48469e-12
1.48189e-12
1.4706e-12
1.45341e-12
1.47101e-12
1.45076e-12
1.37974e-12
1.45596e-12
1.47599e-12
1.33774e-12
1.06256e-12
1.4871e-12
1.33106e-12
1.95297e-12
2.02673e-12
1.86532e-12
1.85533e-12
1.92369e-12
1.79569e-12
1.79653e-12
1.81014e-12
1.7708e-12
1.74926e-12
1.743e-12
1.72908e-12
1.71363e-12
1.70022e-12
1.68984e-12
1.6791e-12
1.66871e-12
1.65634e-12
1.64764e-12
1.63785e-12
1.62974e-12
1.61659e-12
1.608e-12
1.5967e-12
1.5899e-12
1.58e-12
1.57579e-12
1.56462e-12
1.55995e-12
1.54956e-12
1.54422e-12
1.53259e-12
1.52641e-12
1.51468e-12
1.51113e-12
1.50059e-12
1.49632e-12
1.48595e-12
1.481e-12
1.46971e-12
1.46403e-12
1.45301e-12
1.44544e-12
1.43404e-12
1.43019e-12
1.41439e-12
1.39999e-12
1.3969e-12
1.37609e-12
1.37707e-12
1.37123e-12
1.15557e-12
1.45249e-12
1.43364e-12
1.13692e-12
1.19865e-12
2.07219e-12
2.09782e-12
1.969e-12
1.9381e-12
2.01242e-12
1.87666e-12
1.86895e-12
1.87857e-12
1.83402e-12
1.80952e-12
1.7978e-12
1.7801e-12
1.75847e-12
1.74406e-12
1.72872e-12
1.71683e-12
1.69932e-12
1.68822e-12
1.67214e-12
1.66181e-12
1.64515e-12
1.63597e-12
1.61993e-12
1.60911e-12
1.59277e-12
1.58556e-12
1.57276e-12
1.56812e-12
1.55514e-12
1.54818e-12
1.53185e-12
1.52429e-12
1.51205e-12
1.50513e-12
1.4917e-12
1.48445e-12
1.47163e-12
1.46451e-12
1.45155e-12
1.44347e-12
1.43101e-12
1.42297e-12
1.40689e-12
1.39443e-12
1.3852e-12
1.36647e-12
1.34031e-12
1.35046e-12
1.32556e-12
1.23478e-12
1.31219e-12
1.33715e-12
1.15266e-12
8.1923e-13
1.29627e-12
1.12363e-12
2.19145e-12
2.22282e-12
2.10185e-12
2.0163e-12
2.09381e-12
1.95367e-12
1.93689e-12
1.94172e-12
1.89416e-12
1.86115e-12
1.84425e-12
1.82262e-12
1.79985e-12
1.78122e-12
1.76128e-12
1.74155e-12
1.72337e-12
1.70868e-12
1.69072e-12
1.6765e-12
1.65847e-12
1.64843e-12
1.62743e-12
1.61799e-12
1.59779e-12
1.59122e-12
1.57103e-12
1.56607e-12
1.54338e-12
1.53897e-12
1.51755e-12
1.51655e-12
1.49547e-12
1.4942e-12
1.47158e-12
1.46967e-12
1.44503e-12
1.44361e-12
1.42052e-12
1.41779e-12
1.39393e-12
1.38974e-12
1.3627e-12
1.36034e-12
1.34305e-12
1.33057e-12
1.29774e-12
1.29653e-12
1.25423e-12
1.2762e-12
1.23204e-12
9.44235e-13
1.33644e-12
1.36569e-12
9.3362e-13
9.89475e-13
2.30562e-12
2.29804e-12
2.21417e-12
2.10459e-12
2.20866e-12
2.05909e-12
2.02818e-12
2.02503e-12
1.97882e-12
1.93973e-12
1.92472e-12
1.89015e-12
1.87139e-12
1.83603e-12
1.833e-12
1.79728e-12
1.79525e-12
1.75049e-12
1.75556e-12
1.71068e-12
1.71929e-12
1.66905e-12
1.6821e-12
1.63155e-12
1.64707e-12
1.58943e-12
1.60796e-12
1.54471e-12
1.56616e-12
1.5066e-12
1.53108e-12
1.46773e-12
1.49344e-12
1.43353e-12
1.46452e-12
1.40296e-12
1.43092e-12
1.37042e-12
1.39727e-12
1.33712e-12
1.36115e-12
1.30328e-12
1.31851e-12
1.27082e-12
1.29008e-12
1.234e-12
1.23053e-12
1.21002e-12
1.21117e-12
1.06681e-12
1.13125e-12
1.27824e-12
1.02823e-12
4.64007e-13
1.17428e-12
9.30403e-13
2.41368e-12
2.36786e-12
2.33352e-12
2.12106e-12
2.22846e-12
2.10821e-12
2.06475e-12
2.06379e-12
2.01042e-12
1.98065e-12
1.947e-12
1.92869e-12
1.89443e-12
1.87555e-12
1.83321e-12
1.8139e-12
1.78038e-12
1.77266e-12
1.73387e-12
1.72555e-12
1.6864e-12
1.68207e-12
1.64658e-12
1.63896e-12
1.60575e-12
1.59943e-12
1.57023e-12
1.56474e-12
1.53686e-12
1.52991e-12
1.4965e-12
1.48462e-12
1.45439e-12
1.43715e-12
1.41092e-12
1.4071e-12
1.39124e-12
1.3803e-12
1.3634e-12
1.35531e-12
1.34575e-12
1.34125e-12
1.32084e-12
1.2969e-12
1.27119e-12
1.24064e-12
1.22627e-12
1.21326e-12
1.15279e-12
1.15015e-12
1.18406e-12
7.82905e-13
1.1587e-12
1.27172e-12
8.35185e-13
8.05914e-13
2.51646e-12
2.46554e-12
2.38714e-12
2.2413e-12
2.28264e-12
2.14191e-12
2.10383e-12
2.09797e-12
2.01924e-12
1.99344e-12
1.94955e-12
1.93808e-12
1.86595e-12
1.87197e-12
1.80218e-12
1.82886e-12
1.73847e-12
1.77952e-12
1.68282e-12
1.74112e-12
1.62809e-12
1.70378e-12
1.57335e-12
1.66764e-12
1.5287e-12
1.63972e-12
1.49161e-12
1.61567e-12
1.45608e-12
1.59012e-12
1.42355e-12
1.56761e-12
1.39926e-12
1.54808e-12
1.36753e-12
1.51314e-12
1.32843e-12
1.47795e-12
1.30921e-12
1.44732e-12
1.27546e-12
1.40491e-12
1.24586e-12
1.36074e-12
1.23419e-12
1.32095e-12
1.16214e-12
1.23727e-12
1.13278e-12
1.11949e-12
9.94758e-13
1.159e-12
1.0618e-12
4.81416e-13
9.39627e-13
7.50296e-13
2.62975e-12
2.66326e-12
2.45794e-12
2.4654e-12
2.4768e-12
2.31068e-12
2.31192e-12
2.27782e-12
2.22581e-12
2.16659e-12
2.1671e-12
2.10014e-12
2.10637e-12
2.03598e-12
2.06046e-12
1.9747e-12
2.01165e-12
1.89931e-12
1.95679e-12
1.82551e-12
1.90499e-12
1.75694e-12
1.84837e-12
1.6863e-12
1.78396e-12
1.60585e-12
1.70368e-12
1.50865e-12
1.62252e-12
1.4202e-12
1.53937e-12
1.33502e-12
1.46008e-12
1.26668e-12
1.40319e-12
1.20857e-12
1.34251e-12
1.16185e-12
1.26933e-12
1.10686e-12
1.21751e-12
1.05102e-12
1.13623e-12
9.98282e-13
1.08219e-12
9.51482e-13
1.00076e-12
9.39646e-13
9.6455e-13
8.51471e-13
9.6023e-13
7.07849e-13
6.5946e-13
1.06252e-12
5.33871e-13
6.24767e-13
2.72984e-12
2.66803e-12
2.32009e-12
2.39472e-12
2.43147e-12
2.28793e-12
2.27419e-12
2.25784e-12
2.21317e-12
2.16003e-12
2.13649e-12
2.08392e-12
2.07154e-12
2.00123e-12
1.98506e-12
1.90654e-12
1.9204e-12
1.82791e-12
1.85764e-12
1.7562e-12
1.80291e-12
1.69211e-12
1.75612e-12
1.62356e-12
1.70165e-12
1.55732e-12
1.65607e-12
1.49937e-12
1.60002e-12
1.4155e-12
1.48994e-12
1.25745e-12
1.33057e-12
1.1421e-12
1.29136e-12
1.14581e-12
1.3032e-12
1.11981e-12
1.3066e-12
1.18038e-12
1.34678e-12
1.1922e-12
1.3134e-12
1.14562e-12
1.2479e-12
1.09448e-12
1.20051e-12
1.07892e-12
1.11483e-12
9.63316e-13
1.09843e-12
9.75344e-13
9.76517e-13
7.9425e-13
7.246e-13
5.6916e-13
2.84811e-12
2.93276e-12
2.77178e-12
2.5951e-12
2.55004e-12
2.35348e-12
2.24868e-12
2.23879e-12
2.14123e-12
2.11985e-12
2.03281e-12
2.0475e-12
1.94295e-12
1.99557e-12
1.8703e-12
1.95586e-12
1.80027e-12
1.92219e-12
1.72331e-12
1.882e-12
1.63396e-12
1.82112e-12
1.53649e-12
1.78272e-12
1.46848e-12
1.73012e-12
1.38337e-12
1.67348e-12
1.31002e-12
1.6595e-12
1.33856e-12
1.79158e-12
1.48898e-12
1.86545e-12
1.42643e-12
1.73893e-12
1.3061e-12
1.62427e-12
1.23238e-12
1.4317e-12
1.01033e-12
1.29758e-12
9.82149e-13
1.23362e-12
9.6049e-13
1.1524e-12
8.87678e-13
1.04733e-12
8.45309e-13
8.94449e-13
7.07574e-13
6.14057e-13
6.28507e-13
4.7336e-13
4.07094e-13
4.60922e-13
2.92723e-12
2.74478e-12
2.76576e-12
2.51584e-12
2.51522e-12
2.48008e-12
2.44816e-12
2.38851e-12
2.33776e-12
2.29076e-12
2.27028e-12
2.21659e-12
2.18661e-12
2.13196e-12
2.11902e-12
2.05461e-12
2.03453e-12
1.96686e-12
1.95295e-12
1.87975e-12
1.87741e-12
1.80447e-12
1.7958e-12
1.71533e-12
1.71445e-12
1.63055e-12
1.645e-12
1.55462e-12
1.5646e-12
1.4663e-12
1.46202e-12
1.32307e-12
1.29845e-12
1.19732e-12
1.22378e-12
1.15237e-12
1.18739e-12
1.11525e-12
1.12326e-12
1.0921e-12
1.13737e-12
1.07933e-12
1.06737e-12
1.0164e-12
1.01455e-12
9.61651e-13
9.47037e-13
9.26269e-13
8.90574e-13
8.24542e-13
8.3707e-13
8.00327e-13
7.46834e-13
4.84648e-13
6.58065e-13
4.11e-13
2.99129e-12
2.8319e-12
2.70481e-12
2.60491e-12
2.53581e-12
2.46633e-12
2.40708e-12
2.35428e-12
2.30871e-12
2.26326e-12
2.22291e-12
2.17927e-12
2.1421e-12
2.0987e-12
2.06293e-12
2.0184e-12
1.98428e-12
1.9389e-12
1.90577e-12
1.85776e-12
1.8251e-12
1.77644e-12
1.75348e-12
1.72373e-12
1.71228e-12
1.65608e-12
1.59773e-12
1.50966e-12
1.46098e-12
1.41215e-12
1.41254e-12
1.387e-12
1.37634e-12
1.33244e-12
1.31573e-12
1.27169e-12
1.25619e-12
1.21401e-12
1.19645e-12
1.15834e-12
1.14285e-12
1.10422e-12
1.08743e-12
1.05244e-12
1.03352e-12
9.9619e-13
9.70989e-13
9.32806e-13
8.99698e-13
8.49842e-13
8.04595e-13
7.48327e-13
6.88557e-13
5.92262e-13
4.9033e-13
3.46372e-13
)
;

boundaryField
{
    top
    {
        type            zeroGradient;
    }
    bottom
    {
        type            zeroGradient;
    }
    rotatingWall
    {
        type            zeroGradient;
    }
    wall
    {
        type            zeroGradient;
    }
    frontAndBack
    {
        type            empty;
    }
}


// ************************************************************************* //
