/*--------------------------------*- C++ -*----------------------------------*\
| =========                 |                                                 |
| \\      /  F ield         | OpenFOAM: The Open Source CFD Toolbox           |
|  \\    /   O peration     | Version:  5.0                                   |
|   \\  /    A nd           | Web:      www.OpenFOAM.org                      |
|    \\/     M anipulation  |                                                 |
\*---------------------------------------------------------------------------*/
FoamFile
{
    version     2.0;
    format      ascii;
    class       volScalarField;
    location    "1.5";
    object      shearRate;
}
// * * * * * * * * * * * * * * * * * * * * * * * * * * * * * * * * * * * * * //

dimensions      [0 0 -1 0 0 0 0];

internalField   nonuniform List<scalar> 
50
(
1.03949e-14
2.2595e-14
7.71421e-15
2.20737e-14
2.30019e-14
2.19409e-14
2.25618e-14
2.25003e-14
2.25128e-14
2.23609e-14
1.42666e-15
4.44478e-14
4.99284e-15
2.30132e-14
7.11892e-15
2.21455e-14
4.518e-14
4.36087e-14
2.24821e-14
2.25117e-14
6.52381e-14
2.48131e-14
2.24635e-14
4.36645e-14
8.3518e-15
5.77971e-15
1.1164e-14
2.23597e-14
7.24627e-15
8.77898e-15
2.84428e-15
2.19185e-14
5.91723e-15
4.38564e-14
4.42475e-14
2.18914e-14
6.42265e-15
6.45683e-15
7.33205e-15
9.77998e-15
2.18874e-14
8.2349e-15
2.20932e-14
6.8826e-15
4.37415e-14
4.2695e-15
4.36291e-14
2.20955e-14
4.42223e-14
8.70153e-14
)
;

boundaryField
{
    top
    {
        type            zeroGradient;
    }
    bottom
    {
        type            symmetryPlane;
    }
    inlet
    {
        type            zeroGradient;
    }
    outlet
    {
        type            zeroGradient;
    }
    frontAndBack
    {
        type            empty;
    }
    procBoundary0to1
    {
        type            processor;
        value           nonuniform List<scalar> 10(1.96853e-16 2.173e-14 2.33448e-14 2.43647e-14 6.9795e-15 3.06224e-15 1.30121e-13 6.48238e-15 6.51796e-14 1.52118e-13);
    }
}


// ************************************************************************* //
