/*--------------------------------*- C++ -*----------------------------------*\
| =========                 |                                                 |
| \\      /  F ield         | OpenFOAM: The Open Source CFD Toolbox           |
|  \\    /   O peration     | Version:  5.0                                   |
|   \\  /    A nd           | Web:      www.OpenFOAM.org                      |
|    \\/     M anipulation  |                                                 |
\*---------------------------------------------------------------------------*/
FoamFile
{
    version     2.0;
    format      ascii;
    class       volScalarField;
    location    "40";
    object      p;
}
// * * * * * * * * * * * * * * * * * * * * * * * * * * * * * * * * * * * * * //

dimensions      [0 2 -2 0 0 0 0];

internalField   nonuniform List<scalar> 
7000
(
2.91585e-06
-0.000347767
-0.000501841
-0.000503529
-0.00049614
-0.000503857
-0.000506758
-0.000498173
-0.000482295
-0.000463457
-0.000444691
-0.000422071
-0.000384652
-0.000345062
5.71437e-05
-0.000341696
-0.000508326
-0.000511064
-0.000505152
-0.00051391
-0.000518647
-0.000512179
-0.000496578
-0.00047485
-0.000447918
-0.000411303
-0.000361823
-0.000314658
6.48871e-05
-0.000346469
-0.000513841
-0.000512764
-0.000507805
-0.000519175
-0.000526301
-0.000521289
-0.000504756
-0.000477711
-0.00043984
-0.000390624
-0.00033448
-0.000287481
6.90669e-05
-0.000342232
-0.000511673
-0.000511328
-0.00050782
-0.000521248
-0.000530247
-0.000526648
-0.000510295
-0.000481087
-0.000438346
-0.000383109
-0.000323199
-0.000278588
7.40114e-05
-0.00033795
-0.000509884
-0.000510694
-0.000507786
-0.000522203
-0.000532368
-0.000530006
-0.000514582
-0.000485052
-0.000440024
-0.000381301
-0.000319396
-0.000276357
7.7847e-05
-0.000334453
-0.000507813
-0.000509412
-0.000506879
-0.000522001
-0.000533161
-0.000531982
-0.000517617
-0.000488348
-0.000442195
-0.000381336
-0.000317951
-0.000275325
8.02443e-05
-0.000331757
-0.000505897
-0.000508154
-0.000505932
-0.000521558
-0.000533518
-0.000533309
-0.000519802
-0.000490861
-0.000444102
-0.00038182
-0.000317158
-0.000274148
8.20623e-05
-0.000329467
-0.000504157
-0.000507003
-0.000505046
-0.00052105
-0.000533618
-0.000534121
-0.000521233
-0.000492549
-0.000445414
-0.000382132
-0.000316375
-0.000272752
8.40451e-05
-0.000327194
-0.000502505
-0.000505957
-0.000504275
-0.000520605
-0.00053364
-0.000534631
-0.000522123
-0.000493568
-0.000446143
-0.00038211
-0.000315452
-0.000271257
8.64892e-05
-0.000324754
-0.000500885
-0.000504987
-0.0005036
-0.000520227
-0.000533609
-0.000534901
-0.000522574
-0.000494015
-0.000446311
-0.000381679
-0.000314286
-0.000269601
8.93593e-05
-0.000322168
-0.000499326
-0.00050412
-0.000503017
-0.000519893
-0.000533518
-0.000534954
-0.000522637
-0.000493948
-0.000445942
-0.000380802
-0.000312782
-0.000267644
9.24892e-05
-0.000319551
-0.000497905
-0.000503411
-0.000502536
-0.000519592
-0.000533365
-0.000534799
-0.000522331
-0.000493392
-0.000445045
-0.000379448
-0.000310872
-0.000265268
9.57378e-05
-0.000317012
-0.000496674
-0.00050287
-0.000502155
-0.000519331
-0.000533162
-0.00053446
-0.000521691
-0.000492385
-0.000443653
-0.000377626
-0.00030855
-0.000262469
9.89909e-05
-0.000314649
-0.00049566
-0.000502495
-0.000501889
-0.000519118
-0.000532912
-0.000533961
-0.000520773
-0.000490994
-0.000441829
-0.000375391
-0.000305872
-0.000259348
0.000102147
-0.000312502
-0.000494866
-0.000502293
-0.000501756
-0.000518959
-0.000532629
-0.000533342
-0.000519645
-0.00048931
-0.000439666
-0.000372837
-0.000302945
-0.000256054
0.000105125
-0.000310594
-0.000494267
-0.000502251
-0.000501752
-0.000518859
-0.000532334
-0.000532652
-0.000518387
-0.000487439
-0.000437283
-0.000370087
-0.000299905
-0.000252742
0.000107837
-0.000308975
-0.00049385
-0.00050234
-0.000501861
-0.000518827
-0.000532059
-0.000531945
-0.000517083
-0.000485493
-0.000434809
-0.000367278
-0.000296896
-0.000249571
0.000110199
-0.000307671
-0.000493594
-0.000502535
-0.000502071
-0.000518873
-0.000531837
-0.000531281
-0.000515821
-0.000483588
-0.000432379
-0.00036455
-0.000294056
-0.00024668
0.000112145
-0.000306695
-0.00049348
-0.000502803
-0.00050236
-0.000518999
-0.000531695
-0.000530716
-0.000514686
-0.000481838
-0.000430127
-0.000362039
-0.00029151
-0.00024419
0.000113637
-0.000306028
-0.000493472
-0.000503102
-0.000502695
-0.000519194
-0.000531642
-0.000530285
-0.000513748
-0.000480345
-0.000428175
-0.000359864
-0.000289366
-0.000242194
0.000114652
-0.000305625
-0.000493536
-0.000503398
-0.000503046
-0.000519444
-0.000531684
-0.000530012
-0.000513057
-0.000479183
-0.000426612
-0.000358113
-0.000287689
-0.000240735
0.000115169
-0.000305471
-0.000493653
-0.000503672
-0.000503399
-0.000519747
-0.000531833
-0.000529921
-0.000512641
-0.000478392
-0.000425486
-0.000356829
-0.0002865
-0.000239805
0.000115212
-0.000305558
-0.000493815
-0.000503913
-0.000503745
-0.000520105
-0.000532102
-0.000530029
-0.000512518
-0.000477985
-0.000424807
-0.000356017
-0.00028579
-0.000239363
0.000114861
-0.000305842
-0.000494006
-0.000504117
-0.000504072
-0.000520508
-0.000532487
-0.000530335
-0.000512688
-0.000477962
-0.000424573
-0.000355663
-0.00028553
-0.000239362
0.000114253
-0.000306224
-0.000494177
-0.00050427
-0.000504369
-0.000520938
-0.000532964
-0.000530807
-0.000513118
-0.000478291
-0.000424747
-0.000355728
-0.000285665
-0.00023973
0.000113527
-0.000306599
-0.000494275
-0.000504352
-0.00050462
-0.000521374
-0.00053351
-0.000531417
-0.000513763
-0.000478911
-0.000425266
-0.000356141
-0.000286116
-0.000240372
0.000112793
-0.00030688
-0.000494258
-0.000504339
-0.000504803
-0.000521778
-0.000534083
-0.000532125
-0.000514575
-0.00047976
-0.000426054
-0.000356822
-0.000286789
-0.000241196
0.000112139
-0.000307014
-0.000494098
-0.000504215
-0.000504893
-0.000522115
-0.00053463
-0.000532868
-0.000515483
-0.000480758
-0.000427024
-0.000357682
-0.00028759
-0.000242102
0.000111648
-0.00030697
-0.000493794
-0.000503979
-0.000504881
-0.000522365
-0.000535117
-0.000533588
-0.00051641
-0.000481814
-0.000428081
-0.000358629
-0.000288432
-0.000242991
0.000111409
-0.000306717
-0.000493355
-0.000503646
-0.000504775
-0.000522526
-0.000535528
-0.000534246
-0.000517294
-0.000482846
-0.000429133
-0.000359574
-0.000289234
-0.000243763
0.000111479
-0.000306247
-0.00049279
-0.000503227
-0.000504584
-0.000522597
-0.000535855
-0.00053482
-0.000518087
-0.000483786
-0.0004301
-0.000360437
-0.000289926
-0.000244351
0.000111867
-0.000305578
-0.000492122
-0.000502741
-0.000504318
-0.00052258
-0.000536089
-0.000535289
-0.000518755
-0.000484584
-0.00043092
-0.000361155
-0.000290453
-0.000244719
0.00011254
-0.000304753
-0.000491389
-0.000502216
-0.000503998
-0.000522486
-0.000536225
-0.000535635
-0.000519268
-0.0004852
-0.00043155
-0.000361685
-0.000290782
-0.000244835
0.000113424
-0.000303837
-0.000490642
-0.000501688
-0.000503656
-0.000522337
-0.000536271
-0.000535852
-0.000519609
-0.000485609
-0.000431958
-0.000361997
-0.000290893
-0.000244697
0.000114448
-0.000302893
-0.000489928
-0.000501195
-0.000503321
-0.000522158
-0.000536248
-0.000535948
-0.000519775
-0.000485802
-0.000432132
-0.000362078
-0.000290781
-0.000244324
0.000115556
-0.000301965
-0.000489282
-0.000500764
-0.000503019
-0.000521977
-0.000536177
-0.000535941
-0.000519782
-0.000485791
-0.000432078
-0.000361934
-0.00029046
-0.000243742
0.000116683
-0.000301095
-0.000488734
-0.000500417
-0.000502773
-0.000521813
-0.000536078
-0.000535852
-0.000519652
-0.000485596
-0.000431817
-0.000361586
-0.000289954
-0.000242994
0.000117766
-0.000300316
-0.000488307
-0.000500169
-0.000502594
-0.000521681
-0.000535964
-0.000535696
-0.000519405
-0.000485246
-0.000431381
-0.000361066
-0.000289301
-0.000242139
0.00011874
-0.000299664
-0.000488012
-0.00050003
-0.000502493
-0.000521588
-0.000535845
-0.000535489
-0.000519065
-0.000484774
-0.000430809
-0.000360415
-0.000288545
-0.000241234
0.000119556
-0.000299171
-0.000487853
-0.000499998
-0.000502469
-0.000521535
-0.000535726
-0.000535247
-0.000518663
-0.000484218
-0.000430143
-0.000359678
-0.000287733
-0.000240329
0.000120184
-0.000298851
-0.00048782
-0.00050006
-0.000502516
-0.000521525
-0.000535618
-0.00053499
-0.000518229
-0.000483618
-0.000429429
-0.0003589
-0.000286911
-0.000239471
0.000120596
-0.000298704
-0.000487898
-0.000500201
-0.000502624
-0.000521553
-0.000535528
-0.000534738
-0.000517793
-0.000483014
-0.000428706
-0.000358122
-0.000286121
-0.000238703
0.000120784
-0.000298716
-0.000488068
-0.000500404
-0.000502775
-0.000521607
-0.000535453
-0.000534503
-0.000517382
-0.000482441
-0.000428014
-0.00035738
-0.0002854
-0.000238061
0.000120764
-0.000298867
-0.00048831
-0.000500648
-0.000502948
-0.000521669
-0.000535387
-0.00053429
-0.00051701
-0.000481916
-0.000427373
-0.000356696
-0.000284773
-0.000237563
0.000120572
-0.000299133
-0.000488608
-0.000500915
-0.000503126
-0.000521742
-0.000535356
-0.000534136
-0.000516706
-0.000481457
-0.00042679
-0.000356077
-0.000284245
-0.000237203
0.000120273
-0.000299481
-0.000488921
-0.000501124
-0.000503214
-0.000521773
-0.000535369
-0.000534077
-0.000516502
-0.000481081
-0.000426279
-0.000355536
-0.00028382
-0.000236959
0.000119882
-0.000299952
-0.000489341
-0.000501317
-0.000503178
-0.000521709
-0.000535376
-0.000534064
-0.00051636
-0.000480787
-0.00042588
-0.000355136
-0.000283554
-0.000236858
0.000119414
-0.000300329
-0.000489633
-0.000501412
-0.000503205
-0.000521794
-0.000535368
-0.000533813
-0.000515939
-0.000480353
-0.000425519
-0.000354869
-0.000283403
-0.00023685
0.000118341
-0.00030149
-0.000489718
-0.000500726
-0.000503437
-0.000522935
-0.000535996
-0.000533355
-0.000514981
-0.000479635
-0.000425314
-0.000355034
-0.000283666
-0.000237142
0.000118146
-0.000304417
-0.000490351
-0.000498708
-0.000503056
-0.000524844
-0.000537335
-0.000532763
-0.000513355
-0.000478248
-0.000424674
-0.000354968
-0.000283823
-0.000237354
-0.000358068
-0.000462129
-0.000517651
-0.000523772
-0.000523271
-0.000526283
-0.00052512
-0.000516315
-0.00050129
-0.000482807
-0.000463205
-0.000439738
-0.000402658
-0.000365786
-0.000345325
-0.000462972
-0.000518737
-0.000528581
-0.000532494
-0.000538075
-0.000538889
-0.000531528
-0.00051665
-0.000495846
-0.000470097
-0.000435762
-0.000390779
-0.000345322
-0.000345045
-0.000465188
-0.000518461
-0.000527368
-0.000532879
-0.000540603
-0.000543946
-0.000539211
-0.000525374
-0.000501821
-0.000468033
-0.000423842
-0.000373208
-0.000325442
-0.000344001
-0.000464596
-0.000517238
-0.000525723
-0.000531982
-0.000540997
-0.000545711
-0.000542492
-0.000529794
-0.000505883
-0.000469248
-0.000420524
-0.000366458
-0.000320134
-0.000340912
-0.000462426
-0.000515691
-0.000524413
-0.000531026
-0.000540646
-0.000546233
-0.000544277
-0.000533154
-0.000510341
-0.000473216
-0.000422166
-0.000365789
-0.000319954
-0.000337673
-0.000459931
-0.000513914
-0.000522991
-0.00052985
-0.000539901
-0.000546249
-0.00054539
-0.000535714
-0.000514135
-0.000477082
-0.00042455
-0.000366333
-0.000320133
-0.000335212
-0.000457731
-0.00051226
-0.000521694
-0.000528782
-0.000539218
-0.000546221
-0.000546254
-0.000537653
-0.000516973
-0.000480022
-0.000426471
-0.000366826
-0.000319855
-0.000333221
-0.000455776
-0.000510795
-0.000520612
-0.000527937
-0.000538714
-0.000546235
-0.000546914
-0.000539005
-0.00051886
-0.000481939
-0.000427671
-0.00036694
-0.000319197
-0.000331193
-0.000453849
-0.000509427
-0.000519685
-0.000527283
-0.000538371
-0.000546291
-0.000547397
-0.000539883
-0.000520001
-0.000483036
-0.000428238
-0.000366687
-0.000318305
-0.000328911
-0.000451837
-0.000508083
-0.000518837
-0.000526737
-0.00053812
-0.000546346
-0.000547708
-0.00054037
-0.000520556
-0.000483474
-0.000428251
-0.00036606
-0.000317157
-0.000326411
-0.000449776
-0.000506783
-0.000518055
-0.000526264
-0.000537919
-0.000546371
-0.000547849
-0.000540513
-0.000520604
-0.000483326
-0.000427729
-0.000365015
-0.000315658
-0.000323825
-0.000447776
-0.000505603
-0.000517382
-0.000525874
-0.000537769
-0.00054637
-0.000547838
-0.000540338
-0.000520175
-0.000482612
-0.00042666
-0.000363501
-0.000313714
-0.000321298
-0.000445939
-0.000504608
-0.000516864
-0.000525601
-0.000537689
-0.00054635
-0.000547686
-0.000539879
-0.000519318
-0.000481367
-0.000425056
-0.00036151
-0.000311309
-0.000318936
-0.000444342
-0.000503851
-0.000516521
-0.000525459
-0.000537674
-0.0005463
-0.000547403
-0.000539179
-0.000518104
-0.000479663
-0.000422975
-0.000359094
-0.000308519
-0.000316809
-0.000443047
-0.000503333
-0.000516348
-0.000525437
-0.000537705
-0.000546218
-0.000547018
-0.000538295
-0.000516615
-0.000477604
-0.000420518
-0.000356351
-0.000305476
-0.000314981
-0.000442059
-0.000503014
-0.000516328
-0.000525522
-0.000537778
-0.000546119
-0.000546568
-0.000537293
-0.000514949
-0.000475315
-0.000417814
-0.000353414
-0.000302328
-0.000313489
-0.000441323
-0.000502866
-0.000516444
-0.0005257
-0.000537895
-0.000546022
-0.000546093
-0.000536242
-0.000513207
-0.00047293
-0.00041501
-0.000350431
-0.000299222
-0.000312331
-0.000440809
-0.000502864
-0.000516672
-0.000525958
-0.000538056
-0.000545948
-0.000545635
-0.000535214
-0.000511496
-0.000470583
-0.000412256
-0.000347552
-0.000296304
-0.000311496
-0.000440502
-0.000502975
-0.000516982
-0.00052628
-0.000538264
-0.000545919
-0.00054524
-0.000534283
-0.000509924
-0.000468409
-0.000409704
-0.000344919
-0.000293714
-0.000310972
-0.00044039
-0.000503167
-0.000517342
-0.00052665
-0.000538525
-0.000545962
-0.000544955
-0.000533525
-0.000508593
-0.000466534
-0.000407489
-0.00034266
-0.000291565
-0.000310743
-0.000440461
-0.000503415
-0.000517723
-0.000527052
-0.00053884
-0.000546097
-0.000544815
-0.000532993
-0.000507581
-0.000465052
-0.000405709
-0.000340861
-0.000289924
-0.000310783
-0.000440668
-0.000503704
-0.000518103
-0.000527473
-0.000539205
-0.00054633
-0.000544839
-0.000532719
-0.00050693
-0.000464017
-0.000404418
-0.000339561
-0.000288805
-0.000311031
-0.00044095
-0.000504009
-0.000518466
-0.0005279
-0.000539616
-0.000546658
-0.000545031
-0.000532711
-0.000506655
-0.000463444
-0.000403629
-0.000338764
-0.000288184
-0.00031139
-0.000441258
-0.000504288
-0.000518793
-0.000528316
-0.000540063
-0.000547076
-0.000545386
-0.000532965
-0.000506747
-0.000463324
-0.000403327
-0.000338446
-0.000288023
-0.000311774
-0.000441529
-0.000504494
-0.000519056
-0.000528699
-0.000540526
-0.000547565
-0.000545883
-0.000533451
-0.000507173
-0.000463617
-0.000403469
-0.000338559
-0.000288264
-0.000312117
-0.000441705
-0.000504588
-0.000519227
-0.000529022
-0.000540975
-0.0005481
-0.000546491
-0.000534128
-0.000507875
-0.000464255
-0.000403986
-0.000339026
-0.000288822
-0.000312368
-0.000441745
-0.000504547
-0.000519285
-0.000529259
-0.000541379
-0.000548646
-0.000547169
-0.000534943
-0.000508783
-0.000465156
-0.00040479
-0.000339752
-0.000289602
-0.000312489
-0.000441624
-0.000504359
-0.000519219
-0.000529391
-0.000541711
-0.000549166
-0.000547869
-0.00053583
-0.000509817
-0.000466229
-0.000405783
-0.000340644
-0.0002905
-0.000312441
-0.000441331
-0.000504026
-0.000519027
-0.000529411
-0.000541954
-0.000549629
-0.000548544
-0.000536724
-0.000510891
-0.000467376
-0.000406866
-0.000341603
-0.000291421
-0.000312186
-0.000440867
-0.000503561
-0.000518721
-0.000529324
-0.000542103
-0.000550017
-0.000549159
-0.000537569
-0.000511928
-0.000468502
-0.000407941
-0.00034254
-0.00029228
-0.000311724
-0.000440249
-0.000502984
-0.000518317
-0.000529142
-0.000542162
-0.000550322
-0.000549692
-0.000538322
-0.000512865
-0.000469529
-0.000408921
-0.000343375
-0.000293001
-0.000311082
-0.000439512
-0.000502327
-0.000517842
-0.000528881
-0.000542139
-0.00055054
-0.000550126
-0.000538953
-0.000513654
-0.000470394
-0.00040974
-0.000344047
-0.00029353
-0.000310302
-0.000438698
-0.000501628
-0.000517325
-0.000528566
-0.000542047
-0.000550673
-0.000550453
-0.000539441
-0.000514262
-0.000471054
-0.000410352
-0.000344514
-0.000293828
-0.000309434
-0.000437858
-0.000500927
-0.000516802
-0.000528225
-0.000541906
-0.000550729
-0.000550669
-0.000539774
-0.000514669
-0.000471484
-0.000410728
-0.000344752
-0.000293881
-0.000308527
-0.000437038
-0.000500266
-0.000516306
-0.000527887
-0.000541739
-0.000550724
-0.000550782
-0.000539952
-0.00051487
-0.000471674
-0.000410856
-0.000344753
-0.000293696
-0.000307631
-0.000436276
-0.000499677
-0.000515867
-0.000527579
-0.00054157
-0.000550675
-0.000550802
-0.000539983
-0.000514873
-0.000471632
-0.000410745
-0.000344529
-0.000293289
-0.00030679
-0.000435609
-0.000499193
-0.00051551
-0.000527324
-0.000541418
-0.000550598
-0.000550747
-0.000539887
-0.000514698
-0.000471378
-0.000410417
-0.000344103
-0.000292695
-0.000306035
-0.000435068
-0.000498833
-0.000515251
-0.000527137
-0.000541298
-0.000550508
-0.000550631
-0.000539683
-0.000514373
-0.000470947
-0.000409907
-0.000343514
-0.000291965
-0.000305395
-0.000434664
-0.000498605
-0.000515098
-0.000527026
-0.000541215
-0.000550412
-0.000550468
-0.000539395
-0.000513932
-0.000470379
-0.000409259
-0.000342805
-0.000291152
-0.000304903
-0.000434398
-0.000498505
-0.000515051
-0.00052699
-0.000541169
-0.000550315
-0.000550272
-0.000539047
-0.000513414
-0.00046972
-0.000408522
-0.000342024
-0.000290305
-0.000304579
-0.000434272
-0.000498523
-0.000515103
-0.000527025
-0.000541161
-0.000550227
-0.000550061
-0.000538669
-0.000512857
-0.000469018
-0.000407744
-0.000341219
-0.000289471
-0.000304432
-0.000434283
-0.000498645
-0.00051524
-0.00052712
-0.000541188
-0.000550154
-0.000549852
-0.000538288
-0.000512296
-0.000468314
-0.000406968
-0.000340429
-0.000288689
-0.000304458
-0.000434415
-0.000498852
-0.000515441
-0.00052726
-0.000541241
-0.000550097
-0.00054966
-0.00053793
-0.000511769
-0.00046765
-0.000406232
-0.000339691
-0.000287998
-0.000304636
-0.000434651
-0.000499125
-0.000515686
-0.000527424
-0.00054131
-0.000550062
-0.000549499
-0.00053762
-0.000511306
-0.000467055
-0.000405561
-0.000339028
-0.000287417
-0.000304933
-0.000434966
-0.000499439
-0.000515945
-0.000527592
-0.000541392
-0.000550059
-0.000549391
-0.000537384
-0.000510931
-0.000466549
-0.000404967
-0.000338445
-0.000286948
-0.000305282
-0.000435327
-0.000499771
-0.000516183
-0.000527733
-0.000541473
-0.000550088
-0.000549345
-0.000537232
-0.000510656
-0.000466139
-0.000404454
-0.000337942
-0.000286578
-0.000305671
-0.000435733
-0.000500133
-0.000516413
-0.000527855
-0.000541556
-0.000550143
-0.000549333
-0.000537132
-0.000510465
-0.000465829
-0.000404035
-0.00033752
-0.000286324
-0.00030603
-0.000436116
-0.000500446
-0.000516587
-0.00052802
-0.000541751
-0.000550251
-0.000549275
-0.000536971
-0.000510283
-0.000465608
-0.000403718
-0.000337138
-0.000286105
-0.000306906
-0.000437112
-0.000500991
-0.000516567
-0.000528286
-0.000542358
-0.00055059
-0.000549089
-0.000536514
-0.000509884
-0.000465362
-0.000403555
-0.000336936
-0.000286191
-0.000307362
-0.000438437
-0.000501735
-0.000515939
-0.000528512
-0.000543837
-0.000551786
-0.000549217
-0.000536035
-0.000509448
-0.00046501
-0.000402618
-0.00033443
-0.000286018
-0.000464826
-0.000490388
-0.000511896
-0.000524142
-0.000531078
-0.000535226
-0.000535234
-0.000529621
-0.000518215
-0.000502333
-0.00048394
-0.000460996
-0.0004259
-0.000394202
-0.000464904
-0.00049516
-0.000515578
-0.000528342
-0.00053657
-0.000542148
-0.000543711
-0.000539517
-0.000529089
-0.0005131
-0.000492229
-0.000462456
-0.000422818
-0.000383799
-0.0004659
-0.000495346
-0.000514497
-0.000527741
-0.000537466
-0.000544605
-0.000547822
-0.00054538
-0.000535876
-0.000518275
-0.000491779
-0.000455487
-0.000413002
-0.000372915
-0.00046491
-0.000494055
-0.000512786
-0.000526036
-0.000536351
-0.000544311
-0.00054837
-0.000546886
-0.00053833
-0.000520898
-0.000492881
-0.000454091
-0.000409994
-0.000371899
-0.000462721
-0.000492135
-0.000511094
-0.000524569
-0.000535177
-0.000543531
-0.000548138
-0.000547552
-0.000540453
-0.00052467
-0.000497465
-0.000457729
-0.000411843
-0.000373964
-0.000460256
-0.000490106
-0.000509408
-0.000523175
-0.000534044
-0.000542741
-0.000547935
-0.000548322
-0.000542688
-0.000528558
-0.000502226
-0.00046169
-0.000414048
-0.000375446
-0.000458207
-0.000488304
-0.000507882
-0.000521931
-0.00053308
-0.000542146
-0.000547928
-0.000549183
-0.000544677
-0.000531682
-0.000505864
-0.0004647
-0.000415714
-0.000376173
-0.000456498
-0.000486694
-0.000506539
-0.00052089
-0.000532341
-0.000541764
-0.000548042
-0.000549941
-0.000546166
-0.000533827
-0.000508281
-0.000466706
-0.000416739
-0.000376395
-0.000454856
-0.000485142
-0.000505293
-0.000520006
-0.000531794
-0.000541545
-0.0005482
-0.000550516
-0.00054715
-0.000535148
-0.000509735
-0.000467891
-0.000417213
-0.000376243
-0.000453177
-0.000483585
-0.000504081
-0.000519214
-0.000531368
-0.000541423
-0.000548353
-0.000550904
-0.000547724
-0.000535843
-0.000510454
-0.000468394
-0.000417196
-0.000375737
-0.000451503
-0.000482066
-0.00050292
-0.000518496
-0.000531026
-0.000541364
-0.000548487
-0.000551131
-0.000547959
-0.000536033
-0.000510566
-0.000468299
-0.000416697
-0.000374841
-0.000449903
-0.000480684
-0.000501884
-0.000517889
-0.000530779
-0.000541367
-0.000548606
-0.000551221
-0.000547896
-0.000535778
-0.00051013
-0.000467642
-0.000415705
-0.000373502
-0.000448468
-0.000479532
-0.00050105
-0.00051744
-0.000530647
-0.000541437
-0.000548706
-0.000551177
-0.000547577
-0.000535133
-0.000509195
-0.000466452
-0.000414226
-0.000371715
-0.000447277
-0.000478649
-0.000500454
-0.00051717
-0.000530632
-0.000541555
-0.000548771
-0.000551009
-0.000547041
-0.000534164
-0.000507831
-0.000464785
-0.000412302
-0.000369531
-0.000446372
-0.000478034
-0.000500098
-0.000517077
-0.000530722
-0.0005417
-0.000548796
-0.000550744
-0.000546342
-0.000532946
-0.000506129
-0.000462728
-0.000410011
-0.000367043
-0.000445764
-0.000477668
-0.00049996
-0.000517141
-0.000530902
-0.000541868
-0.000548795
-0.000550415
-0.000545535
-0.000531563
-0.000504196
-0.000460397
-0.000407467
-0.000364374
-0.000445409
-0.000477523
-0.000500015
-0.000517343
-0.000531162
-0.000542064
-0.000548786
-0.000550058
-0.000544679
-0.000530105
-0.000502149
-0.000457924
-0.000404807
-0.000361636
-0.000445257
-0.000477562
-0.000500232
-0.000517661
-0.000531489
-0.000542292
-0.000548791
-0.00054971
-0.000543837
-0.000528663
-0.00050011
-0.000455452
-0.000402177
-0.000358963
-0.000445273
-0.000477745
-0.000500574
-0.000518068
-0.000531874
-0.000542559
-0.000548832
-0.000549412
-0.000543072
-0.000527328
-0.0004982
-0.00045312
-0.000399711
-0.000356517
-0.000445428
-0.000478033
-0.000500998
-0.000518539
-0.000532311
-0.000542876
-0.000548935
-0.000549207
-0.00054245
-0.000526193
-0.000496534
-0.00045106
-0.000397537
-0.000354418
-0.000445694
-0.000478385
-0.000501463
-0.000519048
-0.000532792
-0.000543249
-0.000549124
-0.000549134
-0.000542025
-0.000525332
-0.000495209
-0.000449377
-0.000395754
-0.000352746
-0.000446018
-0.000478755
-0.000501934
-0.000519569
-0.000533303
-0.00054368
-0.000549412
-0.000549217
-0.000541836
-0.000524796
-0.000494286
-0.000448137
-0.000394418
-0.000351539
-0.000446333
-0.000479102
-0.000502372
-0.000520078
-0.000533829
-0.000544163
-0.000549802
-0.000549471
-0.000541901
-0.000524608
-0.000493795
-0.00044737
-0.000393555
-0.000350792
-0.000446577
-0.000479377
-0.000502731
-0.000520543
-0.00053435
-0.000544684
-0.000550282
-0.000549883
-0.000542212
-0.000524765
-0.000493731
-0.000447072
-0.000393156
-0.000350484
-0.000446719
-0.000479542
-0.000502973
-0.000520931
-0.000534839
-0.00054522
-0.000550829
-0.000550428
-0.00054274
-0.000525231
-0.000494059
-0.000447208
-0.000393183
-0.000350575
-0.000446748
-0.000479577
-0.00050308
-0.000521211
-0.000535264
-0.000545742
-0.000551417
-0.000551075
-0.000543443
-0.000525954
-0.000494713
-0.000447711
-0.000393571
-0.000350998
-0.000446656
-0.00047947
-0.000503045
-0.000521362
-0.000535598
-0.000546221
-0.000552013
-0.000551785
-0.00054427
-0.000526865
-0.000495615
-0.000448497
-0.000394235
-0.000351667
-0.000446432
-0.000479211
-0.000502866
-0.000521374
-0.000535821
-0.00054663
-0.000552586
-0.000552516
-0.000545161
-0.000527886
-0.000496674
-0.000449472
-0.000395087
-0.000352479
-0.000446063
-0.000478805
-0.00050255
-0.000521252
-0.000535926
-0.000546951
-0.000553106
-0.000553225
-0.000546057
-0.00052894
-0.000497799
-0.000450541
-0.000396035
-0.000353341
-0.000445555
-0.000478269
-0.000502112
-0.000521007
-0.000535915
-0.000547175
-0.000553551
-0.000553875
-0.000546904
-0.000529957
-0.000498906
-0.000451614
-0.000396988
-0.000354184
-0.000444939
-0.000477633
-0.000501575
-0.000520659
-0.000535801
-0.000547305
-0.000553912
-0.000554443
-0.000547663
-0.000530878
-0.000499922
-0.000452612
-0.000397868
-0.000354943
-0.000444253
-0.000476932
-0.000500971
-0.000520234
-0.000535605
-0.00054735
-0.000554185
-0.000554912
-0.000548304
-0.00053166
-0.00050079
-0.00045347
-0.000398612
-0.000355564
-0.000443538
-0.000476206
-0.000500337
-0.000519763
-0.000535349
-0.000547325
-0.000554374
-0.000555278
-0.000548811
-0.000532275
-0.000501471
-0.000454137
-0.000399175
-0.000356004
-0.000442827
-0.000475496
-0.000499708
-0.000519278
-0.00053506
-0.000547247
-0.000554488
-0.000555539
-0.000549175
-0.000532707
-0.00050194
-0.000454584
-0.000399528
-0.000356234
-0.000442147
-0.000474834
-0.000499116
-0.000518811
-0.000534765
-0.000547138
-0.000554538
-0.000555699
-0.000549395
-0.000532951
-0.000502185
-0.0004548
-0.000399659
-0.000356246
-0.000441525
-0.000474246
-0.00049859
-0.000518392
-0.000534494
-0.000547018
-0.000554537
-0.000555766
-0.000549477
-0.000533011
-0.000502211
-0.000454786
-0.000399572
-0.000356048
-0.000440981
-0.000473755
-0.000498156
-0.000518049
-0.000534267
-0.000546902
-0.000554498
-0.000555751
-0.000549433
-0.000532902
-0.000502035
-0.000454558
-0.000399283
-0.00035566
-0.00044054
-0.000473383
-0.000497838
-0.000517801
-0.000534101
-0.000546806
-0.000554435
-0.00055567
-0.000549282
-0.000532648
-0.000501684
-0.000454147
-0.00039882
-0.000355118
-0.000440223
-0.000473142
-0.000497648
-0.000517658
-0.000534004
-0.000546739
-0.000554358
-0.000555538
-0.000549044
-0.000532278
-0.000501196
-0.000453591
-0.000398223
-0.000354467
-0.000440044
-0.000473035
-0.000497586
-0.00051762
-0.000533978
-0.000546703
-0.000554277
-0.000555368
-0.000548745
-0.000531826
-0.000500612
-0.000452935
-0.000397535
-0.00035375
-0.000440005
-0.000473057
-0.000497643
-0.000517681
-0.000534021
-0.000546702
-0.000554198
-0.000555178
-0.000548407
-0.000531326
-0.000499976
-0.000452224
-0.000396798
-0.000353004
-0.000440095
-0.000473193
-0.000497803
-0.000517827
-0.000534122
-0.000546731
-0.000554129
-0.000554983
-0.000548058
-0.000530815
-0.000499329
-0.000451499
-0.000396054
-0.000352265
-0.000440295
-0.000473426
-0.000498047
-0.00051804
-0.000534266
-0.000546785
-0.000554075
-0.0005548
-0.000547726
-0.000530329
-0.000498713
-0.000450802
-0.000395338
-0.000351573
-0.000440585
-0.000473732
-0.00049835
-0.000518297
-0.000534439
-0.000546857
-0.00055404
-0.000554646
-0.000547439
-0.000529906
-0.000498167
-0.000450163
-0.000394676
-0.000350952
-0.000440931
-0.000474085
-0.000498687
-0.000518574
-0.000534622
-0.000546943
-0.000554031
-0.000554537
-0.000547219
-0.000529572
-0.000497715
-0.000449604
-0.000394083
-0.000350414
-0.000441277
-0.000474449
-0.000499027
-0.000518844
-0.000534799
-0.000547035
-0.000554046
-0.000554475
-0.000547074
-0.000529341
-0.000497375
-0.000449136
-0.00039356
-0.000349955
-0.000441626
-0.000474799
-0.000499345
-0.0005191
-0.000534979
-0.000547144
-0.000554088
-0.000554449
-0.000546993
-0.000529216
-0.000497163
-0.000448781
-0.000393112
-0.000349599
-0.00044179
-0.000475008
-0.000499559
-0.000519296
-0.000535163
-0.000547293
-0.000554156
-0.00055443
-0.000546941
-0.000529199
-0.000497139
-0.000448626
-0.000392761
-0.000349293
-0.000441353
-0.000474859
-0.000499586
-0.000519392
-0.000535326
-0.000547445
-0.000554168
-0.000554275
-0.000546734
-0.000529109
-0.000497241
-0.000448893
-0.000393071
-0.000349465
-0.000438438
-0.000472549
-0.00049804
-0.000519031
-0.000535529
-0.000547688
-0.000554095
-0.00055385
-0.000546268
-0.000529075
-0.000497887
-0.000449978
-0.000393376
-0.000349616
-0.000499581
-0.000511245
-0.000520739
-0.000530041
-0.000536491
-0.000540129
-0.000540686
-0.000537077
-0.000528497
-0.000515122
-0.000497974
-0.000475044
-0.000442811
-0.000417994
-0.000503105
-0.000516782
-0.000525232
-0.000534417
-0.000541471
-0.000546026
-0.000547517
-0.000544895
-0.000537293
-0.000524799
-0.000507505
-0.000481598
-0.000446639
-0.000414579
-0.000504083
-0.00051679
-0.000525175
-0.000535285
-0.000543832
-0.000549816
-0.000552436
-0.000550763
-0.000543508
-0.00052973
-0.000508645
-0.000478802
-0.000442949
-0.000410244
-0.000502278
-0.000514693
-0.000523083
-0.00053355
-0.000542836
-0.000549645
-0.000552838
-0.000551562
-0.00054464
-0.000530727
-0.000508573
-0.000477549
-0.000441483
-0.000410886
-0.000500209
-0.000512609
-0.000521117
-0.000531701
-0.000541153
-0.000548237
-0.000551857
-0.000551205
-0.000545449
-0.000533127
-0.000512172
-0.000480939
-0.000443483
-0.000412903
-0.00049806
-0.000510737
-0.000519502
-0.000530285
-0.000539867
-0.000547186
-0.000551333
-0.000551583
-0.000547274
-0.000536698
-0.00051683
-0.000484978
-0.000445715
-0.000414316
-0.000496075
-0.000509034
-0.000518099
-0.000529174
-0.000538995
-0.000546639
-0.000551368
-0.000552512
-0.000549396
-0.000540012
-0.000520689
-0.000488201
-0.00044754
-0.000415215
-0.00049428
-0.000507437
-0.00051682
-0.000528242
-0.000538369
-0.000546372
-0.00055162
-0.000553462
-0.000551125
-0.000542426
-0.000523385
-0.0004905
-0.000448877
-0.000415734
-0.000492635
-0.000505926
-0.000515634
-0.000527445
-0.000537908
-0.000546248
-0.000551895
-0.000554199
-0.00055231
-0.000543986
-0.00052512
-0.000492024
-0.000449734
-0.000415915
-0.000491174
-0.000504543
-0.00051456
-0.000526784
-0.000537597
-0.000546239
-0.000552171
-0.00055474
-0.00055307
-0.000544911
-0.000526129
-0.000492909
-0.000450128
-0.000415766
-0.000489955
-0.000503375
-0.000513666
-0.000526292
-0.000537451
-0.000546358
-0.000552479
-0.000555151
-0.000553513
-0.000545352
-0.000526565
-0.000493247
-0.00045009
-0.000415277
-0.000489023
-0.000502504
-0.000513016
-0.000526007
-0.00053749
-0.000546614
-0.000552822
-0.000555451
-0.00055369