/*--------------------------------*- C++ -*----------------------------------*\
| =========                 |                                                 |
| \\      /  F ield         | OpenFOAM: The Open Source CFD Toolbox           |
|  \\    /   O peration     | Version:  5.0                                   |
|   \\  /    A nd           | Web:      www.OpenFOAM.org                      |
|    \\/     M anipulation  |                                                 |
\*---------------------------------------------------------------------------*/
FoamFile
{
    version     2.0;
    format      ascii;
    class       volScalarField;
    location    "15";
    object      p;
}
// * * * * * * * * * * * * * * * * * * * * * * * * * * * * * * * * * * * * * //

dimensions      [0 2 -2 0 0 0 0];

internalField   nonuniform List<scalar> 
7000
(
1.44316e-05
-0.000155351
-0.000254037
-0.000272152
-0.000271035
-0.000270694
-0.000268573
-0.000263237
-0.000255498
-0.000246332
-0.00023582
-0.000221279
-0.000200807
-0.000181407
0.000162076
-0.000160673
-0.000278358
-0.000290264
-0.000286615
-0.000283349
-0.000278572
-0.000271313
-0.000261674
-0.00024948
-0.000234319
-0.000215268
-0.000191993
-0.00016654
0.000201773
-0.000160775
-0.000289579
-0.000299218
-0.000295117
-0.000291251
-0.000285425
-0.000277001
-0.000265771
-0.000251241
-0.000232724
-0.00020869
-0.000178813
-0.000144232
0.000217785
-0.00015022
-0.000287761
-0.000300104
-0.000297492
-0.000294844
-0.000289622
-0.000281314
-0.000269569
-0.000253611
-0.000232428
-0.000204146
-0.000168883
-0.00012974
0.000227106
-0.000142227
-0.000284849
-0.000299697
-0.000298384
-0.000296834
-0.000292369
-0.000284452
-0.000272639
-0.000255879
-0.00023297
-0.000201977
-0.00016337
-0.00012218
0.000232908
-0.000136718
-0.000281809
-0.000298368
-0.000298122
-0.000297538
-0.000293853
-0.000286437
-0.000274772
-0.000257629
-0.00023366
-0.000200891
-0.000160063
-0.000117353
0.00023672
-0.000132924
-0.000279324
-0.000297041
-0.000297608
-0.000297763
-0.000294696
-0.0002877
-0.000276183
-0.000258792
-0.000234075
-0.000200023
-0.00015756
-0.000113472
0.000239765
-0.000130064
-0.000277381
-0.000295924
-0.000297059
-0.000297724
-0.000295093
-0.000288385
-0.00027694
-0.000259329
-0.000234025
-0.000198998
-0.000155273
-0.00010997
0.000242683
-0.000127678
-0.000275866
-0.000295042
-0.000296542
-0.000297526
-0.000295169
-0.000288623
-0.000277175
-0.000259338
-0.000233544
-0.000197757
-0.000153042
-0.000106708
0.000245558
-0.000125618
-0.000274682
-0.000294347
-0.00029606
-0.000297219
-0.000295007
-0.000288522
-0.000277006
-0.000258938
-0.000232731
-0.000196348
-0.000150864
-0.000103698
0.000248171
-0.000123916
-0.000273777
-0.000293806
-0.000295633
-0.000296868
-0.000294701
-0.000288194
-0.000276556
-0.00025825
-0.00023169
-0.000194849
-0.000148787
-0.000100996
0.000250267
-0.000122638
-0.000273136
-0.00029343
-0.000295309
-0.000296544
-0.000294341
-0.000287743
-0.000275938
-0.000257388
-0.000230526
-0.000193339
-0.000146869
-9.86463e-05
0.000251715
-0.000121815
-0.000272763
-0.000293239
-0.000295129
-0.000296309
-0.000294007
-0.000287261
-0.000275252
-0.000256457
-0.000229336
-0.000191899
-0.000145166
-9.66783e-05
0.000252534
-0.000121412
-0.000272633
-0.000293224
-0.000295098
-0.000296189
-0.000293749
-0.000286821
-0.000274591
-0.000255557
-0.000228216
-0.000190607
-0.000143732
-9.51201e-05
0.000252835
-0.000121348
-0.000272696
-0.000293346
-0.000295188
-0.000296178
-0.000293583
-0.000286466
-0.000274017
-0.000254765
-0.000227241
-0.000189524
-0.000142601
-9.39844e-05
0.000252773
-0.000121517
-0.000272891
-0.000293566
-0.000295371
-0.000296257
-0.000293511
-0.000286211
-0.000273564
-0.00025412
-0.000226451
-0.000188673
-0.000141775
-9.32439e-05
0.000252512
-0.000121815
-0.000273155
-0.000293839
-0.000295616
-0.00029641
-0.000293526
-0.000286065
-0.000273245
-0.000253642
-0.00022586
-0.000188056
-0.000141227
-9.28356e-05
0.000252188
-0.000122147
-0.000273433
-0.000294123
-0.000295888
-0.000296612
-0.000293617
-0.000286022
-0.000273061
-0.000253331
-0.000225466
-0.000187656
-0.000140915
-9.26874e-05
0.000251894
-0.000122443
-0.000273682
-0.000294383
-0.000296156
-0.000296837
-0.00029376
-0.000286064
-0.000272995
-0.000253171
-0.000225246
-0.000187443
-0.000140791
-9.27315e-05
0.000251687
-0.000122658
-0.000273879
-0.000294596
-0.000296395
-0.000297059
-0.00029393
-0.000286165
-0.000273021
-0.000253132
-0.00022517
-0.00018738
-0.000140806
-9.28965e-05
0.000251594
-0.000122775
-0.000274007
-0.000294749
-0.000296584
-0.000297255
-0.000294103
-0.000286299
-0.00027311
-0.00025318
-0.000225199
-0.000187426
-0.000140912
-9.31158e-05
0.000251617
-0.00012279
-0.000274059
-0.000294837
-0.000296716
-0.000297411
-0.00029426
-0.000286442
-0.000273232
-0.000253284
-0.000225296
-0.00018754
-0.00014107
-9.33424e-05
0.000251746
-0.000122712
-0.000274035
-0.00029486
-0.000296789
-0.000297521
-0.00029439
-0.000286578
-0.000273368
-0.000253416
-0.000225431
-0.000187689
-0.000141244
-9.35452e-05
0.000251964
-0.000122552
-0.000273943
-0.000294825
-0.00029681
-0.000297588
-0.000294488
-0.000286697
-0.0002735
-0.000253558
-0.00022558
-0.000187847
-0.000141409
-9.37055e-05
0.000252253
-0.00012233
-0.000273794
-0.000294741
-0.000296786
-0.000297617
-0.000294558
-0.000286797
-0.000273623
-0.000253696
-0.000225728
-0.000187998
-0.00014155
-9.38139e-05
0.000252592
-0.000122066
-0.000273605
-0.000294619
-0.000296728
-0.000297615
-0.000294603
-0.000286878
-0.000273732
-0.000253824
-0.000225865
-0.000188133
-0.000141663
-9.38712e-05
0.000252965
-0.000121775
-0.000273391
-0.000294472
-0.000296645
-0.000297591
-0.000294629
-0.000286944
-0.000273828
-0.00025394
-0.00022599
-0.00018825
-0.000141748
-9.38861e-05
0.000253358
-0.000121471
-0.000273163
-0.000294311
-0.000296547
-0.000297552
-0.000294641
-0.000286997
-0.000273914
-0.000254047
-0.000226103
-0.000188351
-0.000141811
-9.38708e-05
0.000253757
-0.000121162
-0.00027293
-0.000294142
-0.000296441
-0.000297506
-0.000294646
-0.000287045
-0.000273994
-0.000254147
-0.000226209
-0.000188443
-0.000141862
-9.38387e-05
0.000254151
-0.000120858
-0.000272699
-0.000293975
-0.000296336
-0.000297461
-0.000294653
-0.000287093
-0.000274074
-0.000254247
-0.000226314
-0.000188533
-0.000141911
-9.38047e-05
0.00025453
-0.000120564
-0.000272476
-0.000293815
-0.000296239
-0.000297423
-0.000294667
-0.000287148
-0.00027416
-0.000254351
-0.000226423
-0.000188628
-0.000141968
-9.37834e-05
0.000254881
-0.000120289
-0.000272269
-0.000293669
-0.000296155
-0.000297399
-0.000294693
-0.000287215
-0.000274254
-0.000254462
-0.000226538
-0.000188732
-0.00014204
-9.37873e-05
0.00025519
-0.000120043
-0.000272083
-0.000293542
-0.000296091
-0.000297392
-0.000294737
-0.000287295
-0.000274359
-0.00025458
-0.00022666
-0.000188847
-0.000142131
-9.38251e-05
0.000255442
-0.000119836
-0.000271926
-0.000293439
-0.000296049
-0.000297408
-0.000294799
-0.000287389
-0.000274473
-0.000254703
-0.000226786
-0.000188971
-0.000142243
-9.39012e-05
0.000255622
-0.000119677
-0.000271804
-0.000293366
-0.000296034
-0.000297445
-0.000294877
-0.000287495
-0.000274591
-0.000254825
-0.00022691
-0.000189098
-0.000142373
-9.40143e-05
0.000255711
-0.000119578
-0.000271724
-0.000293328
-0.000296046
-0.000297503
-0.000294969
-0.000287606
-0.000274708
-0.00025494
-0.000227024
-0.00018922
-0.000142511
-9.41609e-05
0.000255691
-0.00011955
-0.000271697
-0.00029333
-0.000296086
-0.000297577
-0.00029507
-0.000287719
-0.000274818
-0.000255038
-0.000227117
-0.000189325
-0.000142646
-9.4334e-05
0.000255543
-0.000119602
-0.000271728
-0.000293373
-0.000296149
-0.000297662
-0.000295174
-0.000287827
-0.000274912
-0.000255111
-0.000227177
-0.000189397
-0.000142762
-9.45197e-05
0.000255254
-0.000119741
-0.00027182
-0.000293456
-0.00029623
-0.000297753
-0.000295275
-0.000287923
-0.000274983
-0.000255147
-0.000227188
-0.000189416
-0.000142836
-9.46924e-05
0.000254823
-0.000119966
-0.000271974
-0.000293574
-0.000296324
-0.000297842
-0.000295366
-0.000288
-0.000275023
-0.000255136
-0.000227134
-0.000189357
-0.000142834
-9.48151e-05
0.000254286
-0.000120261
-0.000272179
-0.000293715
-0.000296417
-0.000297921
-0.000295441
-0.000288053
-0.000275024
-0.000255064
-0.000226995
-0.00018919
-0.000142716
-9.48367e-05
0.000253713
-0.000120579
-0.000272398
-0.000293854
-0.000296496
-0.000297982
-0.000295496
-0.000288077
-0.000274977
-0.000254919
-0.000226752
-0.000188885
-0.000142435
-9.46976e-05
0.000253217
-0.000120836
-0.00027257
-0.000293958
-0.000296544
-0.000298018
-0.000295526
-0.000288065
-0.000274872
-0.000254687
-0.000226387
-0.000188417
-0.000141952
-9.43509e-05
0.000252967
-0.0001209
-0.000272627
-0.000293998
-0.000296553
-0.000298025
-0.000295525
-0.000288008
-0.000274701
-0.000254361
-0.000225888
-0.000187769
-0.000141261
-9.37909e-05
0.000253206
-0.000120622
-0.000272524
-0.000293978
-0.00029653
-0.000297994
-0.000295471
-0.000287888
-0.000274457
-0.000253938
-0.000225258
-0.00018695
-0.000140396
-9.30942e-05
0.00025429
-0.000119919
-0.000272368
-0.000294027
-0.000296543
-0.000297931
-0.000295357
-0.000287714
-0.000274165
-0.000253454
-0.00022453
-0.00018601
-0.000139444
-9.23685e-05
0.000256737
-0.000118761
-0.000272461
-0.000294413
-0.0002967
-0.000297869
-0.000295239
-0.000287587
-0.000273957
-0.000253044
-0.000223833
-0.000185076
-0.000138539
-9.16274e-05
0.000260501
-0.000117097
-0.000272702
-0.000294531
-0.000296224
-0.000297283
-0.000294896
-0.000287461
-0.000273843
-0.00025272
-0.000223163
-0.000184183
-0.000137912
-9.1264e-05
0.000261738
-0.000119309
-0.000275362
-0.000292697
-0.000292255
-0.00029422
-0.00029341
-0.000286978
-0.000273667
-0.000252299
-0.000222154
-0.000182875
-0.00013767
-9.32161e-05
0.000261601
-0.000129713
-0.000289841
-0.000292045
-0.000283195
-0.000286935
-0.000289912
-0.000285703
-0.000272918
-0.000250666
-0.000218382
-0.000176695
-0.000131827
-9.3229e-05
-0.000206252
-0.000259007
-0.000292228
-0.000296045
-0.000291755
-0.000287743
-0.000282678
-0.000275468
-0.000266394
-0.000255921
-0.000243714
-0.00022797
-0.000208979
-0.000193184
-0.000182928
-0.000261604
-0.000297959
-0.000304947
-0.000303288
-0.000298737
-0.000291949
-0.000282973
-0.000271931
-0.000258853
-0.00024362
-0.000225873
-0.000206695
-0.000187225
-0.000171785
-0.000260996
-0.000299608
-0.000307389
-0.000307274
-0.000304017
-0.000297898
-0.000288901
-0.000276977
-0.000262044
-0.000244119
-0.000223028
-0.000200126
-0.000174207
-0.000166386
-0.000258446
-0.000298936
-0.000307314
-0.00030812
-0.000306002
-0.000300875
-0.000292541
-0.000280641
-0.000264739
-0.000244678
-0.000220498
-0.000194416
-0.000165467
-0.000161872
-0.000255349
-0.000297363
-0.000306534
-0.000308075
-0.000306777
-0.000302437
-0.00029476
-0.000283172
-0.000266934
-0.000245692
-0.000219544
-0.000191321
-0.000161087
-0.000158288
-0.000252476
-0.000295534
-0.000305461
-0.000307665
-0.000307048
-0.000303366
-0.000296269
-0.000285046
-0.000268722
-0.000246775
-0.000219302
-0.000189575
-0.000158369
-0.000155584
-0.0002501
-0.000293884
-0.00030444
-0.000307188
-0.000307125
-0.000303976
-0.00029734
-0.000286398
-0.000270005
-0.000247522
-0.000219056
-0.000188186
-0.000156039
-0.000153416
-0.000248207
-0.000292581
-0.000303631
-0.000306779
-0.000307117
-0.000304347
-0.000298019
-0.000287228
-0.000270712
-0.00024776
-0.0002185
-0.000186739
-0.000153739
-0.000151518
-0.000246723
-0.000291641
-0.000303066
-0.000306475
-0.00030706
-0.000304515
-0.000298348
-0.000287589
-0.000270892
-0.000247513
-0.000217605
-0.00018515
-0.000151428
-0.00014985
-0.000245592
-0.000291008
-0.000302707
-0.000306265
-0.00030697
-0.00030452
-0.000298394
-0.000287571
-0.000270653
-0.000246882
-0.000216448
-0.000183459
-0.000149163
-0.000148507
-0.000244784
-0.000290621
-0.000302514
-0.000306139
-0.000306869
-0.00030442
-0.000298244
-0.000287285
-0.000270116
-0.000245986
-0.00021513
-0.000181743
-0.000147021
-0.000147567
-0.000244286
-0.00029044
-0.000302464
-0.000306104
-0.000306794
-0.000304274
-0.000297981
-0.000286833
-0.000269395
-0.000244937
-0.000213749
-0.000180081
-0.000145069
-0.000147042
-0.000244068
-0.00029044
-0.00030255
-0.000306169
-0.000306775
-0.000304135
-0.000297674
-0.000286301
-0.000268589
-0.000243838
-0.000212394
-0.000178546
-0.000143366
-0.000146879
-0.00024408
-0.000290586
-0.000302749
-0.000306326
-0.000306824
-0.000304033
-0.000297378
-0.000285766
-0.000267789
-0.000242784
-0.000211149
-0.000177202
-0.000141957
-0.000146985
-0.000244258
-0.000290832
-0.000303023
-0.000306551
-0.000306934
-0.000303985
-0.000297132
-0.000285288
-0.000267069
-0.00024185
-0.00021008
-0.000176099
-0.000140872
-0.000147252
-0.000244534
-0.000291134
-0.000303337
-0.000306819
-0.000307095
-0.000303996
-0.00029696
-0.000284905
-0.000266476
-0.000241085
-0.000209225
-0.000175255
-0.000140103
-0.000147585
-0.000244845
-0.000291448
-0.000303663
-0.00030711
-0.000307295
-0.000304065
-0.000296869
-0.000284633
-0.000266031
-0.000240508
-0.000208595
-0.000174661
-0.000139615
-0.000147905
-0.000245139
-0.000291739
-0.000303972
-0.000307402
-0.000307519
-0.000304184
-0.000296857
-0.000284475
-0.000265735
-0.000240115
-0.000208175
-0.000174289
-0.000139356
-0.000148158
-0.000245385
-0.000291982
-0.000304243
-0.000307675
-0.000307749
-0.000304336
-0.00029691
-0.000284417
-0.000265575
-0.000239886
-0.000207936
-0.0001741
-0.000139277
-0.000148313
-0.00024556
-0.000292164
-0.000304459
-0.000307913
-0.000307967
-0.000304505
-0.00029701
-0.000284439
-0.000265526
-0.000239793
-0.000207844
-0.00017405
-0.000139327
-0.000148364
-0.000245652
-0.000292281
-0.000304616
-0.000308104
-0.000308161
-0.000304675
-0.000297138
-0.000284518
-0.00026556
-0.000239801
-0.000207858
-0.0001741
-0.000139457
-0.000148322
-0.000245666
-0.000292334
-0.000304714
-0.000308245
-0.000308322
-0.000304831
-0.000297276
-0.000284632
-0.000265649
-0.000239878
-0.000207943
-0.000174212
-0.000139624
-0.000148206
-0.000245609
-0.000292327
-0.000304757
-0.000308337
-0.000308446
-0.000304967
-0.000297412
-0.000284761
-0.00026577
-0.000239996
-0.000208068
-0.000174353
-0.000139795
-0.000148033
-0.000245493
-0.000292267
-0.000304752
-0.000308385
-0.000308534
-0.000305079
-0.000297537
-0.000284893
-0.000265905
-0.000240133
-0.000208209
-0.0001745
-0.000139951
-0.00014782
-0.000245333
-0.000292164
-0.000304707
-0.000308395
-0.00030859
-0.000305167
-0.000297647
-0.000285019
-0.000266041
-0.000240275
-0.000208351
-0.000174638
-0.000140079
-0.000147579
-0.000245142
-0.000292029
-0.00030463
-0.000308374
-0.000308617
-0.000305232
-0.000297741
-0.000285135
-0.000266172
-0.000240411
-0.000208485
-0.000174759
-0.000140175
-0.000147321
-0.000244931
-0.000291872
-0.000304528
-0.000308328
-0.000308623
-0.000305279
-0.00029782
-0.00028524
-0.000266294
-0.000240539
-0.000208606
-0.000174861
-0.000140241
-0.000147055
-0.00024471
-0.000291702
-0.000304412
-0.000308267
-0.000308613
-0.000305312
-0.000297888
-0.000285335
-0.000266408
-0.000240658
-0.000208716
-0.000174946
-0.000140284
-0.000146787
-0.000244485
-0.000291527
-0.000304288
-0.000308197
-0.000308594
-0.000305338
-0.00029795
-0.000285425
-0.000266516
-0.000240772
-0.000208819
-0.000175022
-0.000140313
-0.000146524
-0.000244263
-0.000291351
-0.000304163
-0.000308125
-0.000308574
-0.000305362
-0.00029801
-0.000285514
-0.000266622
-0.000240883
-0.000208919
-0.000175095
-0.000140339
-0.00014627
-0.000244048
-0.000291182
-0.000304043
-0.000308057
-0.000308557
-0.00030539
-0.000298075
-0.000285606
-0.000266731
-0.000240996
-0.000209021
-0.000175173
-0.000140374
-0.000146031
-0.000243846
-0.000291024
-0.000303934
-0.000308
-0.000308551
-0.000305428
-0.000298147
-0.000285703
-0.000266843
-0.000241113
-0.000209129
-0.00017526
-0.000140424
-0.000145814
-0.000243663
-0.000290882
-0.00030384
-0.000307958
-0.00030856
-0.000305479
-0.00029823
-0.000285808
-0.000266959
-0.000241232
-0.000209244
-0.00017536
-0.000140497
-0.000145626
-0.000243503
-0.000290761
-0.000303766
-0.000307937
-0.000308588
-0.000305547
-0.000298326
-0.000285919
-0.000267077
-0.000241352
-0.000209363
-0.000175471
-0.000140594
-0.000145477
-0.000243376
-0.000290667
-0.000303719
-0.000307939
-0.000308637
-0.000305632
-0.000298433
-0.000286034
-0.000267193
-0.000241467
-0.00020948
-0.00017559
-0.000140713
-0.000145378
-0.000243289
-0.000290609
-0.000303702
-0.000307967
-0.000308706
-0.000305732
-0.000298549
-0.000286151
-0.000267301
-0.00024157
-0.000209587
-0.000175708
-0.00014085
-0.00014534
-0.000243252
-0.000290593
-0.00030372
-0.000308021
-0.000308794
-0.000305845
-0.00029867
-0.000286262
-0.000267394
-0.00024165
-0.000209671
-0.000175812
-0.000140995
-0.000145374
-0.000243274
-0.000290626
-0.000303775
-0.0003081
-0.000308899
-0.000305967
-0.000298791
-0.000286361
-0.000267461
-0.000241694
-0.000209717
-0.000175886
-0.000141132
-0.000145491
-0.00024336
-0.000290712
-0.000303868
-0.000308203
-0.000309016
-0.000306091
-0.000298902
-0.000286438
-0.000267492
-0.00024169
-0.000209707
-0.000175906
-0.000141228
-0.000145696
-0.000243509
-0.000290851
-0.000303996
-0.000308324
-0.000309137
-0.000306208
-0.000298997
-0.000286485
-0.000267477
-0.000241623
-0.000209622
-0.000175846
-0.000141249
-0.000145972
-0.000243718
-0.000291036
-0.000304151
-0.000308454
-0.000309251
-0.000306308
-0.000299065
-0.000286492
-0.000267403
-0.000241476
-0.000209439
-0.000175673
-0.000141154
-0.000146289
-0.000243966
-0.000291249
-0.00030432
-0.000308578
-0.000309344
-0.00030638
-0.000299099
-0.000286453
-0.000267263
-0.000241238
-0.000209139
-0.000175358
-0.000140896
-0.0001466
-0.000244204
-0.000291459
-0.000304481
-0.000308675
-0.000309402
-0.000306419
-0.000299098
-0.000286366
-0.000267055
-0.000240904
-0.000208708
-0.000174879
-0.000140435
-0.000146815
-0.000244366
-0.000291628
-0.000304606
-0.000308728
-0.00030942
-0.000306424
-0.000299065
-0.00028624
-0.000266789
-0.000240481
-0.000208143
-0.00017423
-0.000139765
-0.000146789
-0.000244378
-0.000291729
-0.000304678
-0.000308727
-0.000309399
-0.000306406
-0.00029902
-0.000286105
-0.000266498
-0.000239995
-0.000207464
-0.000173434
-0.000138934
-0.000146336
-0.000244195
-0.000291779
-0.00030471
-0.000308686
-0.000309353
-0.00030639
-0.000299008
-0.000286024
-0.000266249
-0.000239502
-0.000206722
-0.000172543
-0.000138005
-0.000145156
-0.000243811
-0.000291838
-0.00030471
-0.000308566
-0.000309249
-0.000306382
-0.00029907
-0.000286055
-0.000266108
-0.000239069
-0.000205988
-0.000171629
-0.000137025
-0.00014308
-0.000243606
-0.000292204
-0.000304653
-0.000308171
-0.000308907
-0.000306264
-0.000299125
-0.000286125
-0.000265994
-0.000238613
-0.000205238
-0.000170823
-0.000136419
-0.000142395
-0.000245597
-0.000294001
-0.000304248
-0.000306798
-0.000307801
-0.000305714
-0.00029893
-0.000285991
-0.000265643
-0.000237828
-0.000204069
-0.000169673
-0.000136281
-0.000141452
-0.000253221
-0.00030231
-0.000305941
-0.000304943
-0.000306447
-0.00030577
-0.000299814
-0.000286983
-0.000266082
-0.000236886
-0.000200563
-0.000162523
-0.00012795
-0.000270582
-0.000286019
-0.000295562
-0.000298491
-0.000297645
-0.000295218
-0.000290755
-0.000283827
-0.000274882
-0.000264392
-0.000251852
-0.000236094
-0.000218872
-0.000206477
-0.000270081
-0.000288589
-0.000299571
-0.000303951
-0.000303733
-0.00030094
-0.000295891
-0.000288386
-0.00027852
-0.000266482
-0.000252229
-0.000235717
-0.000218697
-0.000203708
-0.000267623
-0.000287485
-0.000299509
-0.000305314
-0.000306553
-0.000304788
-0.000300446
-0.000293215
-0.000282913
-0.000269639
-0.00025359
-0.00023494
-0.000215541
-0.000196358
-0.000264987
-0.000285442
-0.000298057
-0.000304584
-0.000306895
-0.000306166
-0.000302715
-0.00029619
-0.00028607
-0.000272113
-0.000254496
-0.000233748
-0.000212431
-0.000191599
-0.000262364
-0.000283165
-0.000296235
-0.000303308
-0.000306367
-0.00030642
-0.000303674
-0.000297793
-0.000288112
-0.000274086
-0.00025573
-0.000233644
-0.000210904
-0.000189546
-0.000260022
-0.000281032
-0.000294453
-0.000301987
-0.000305656
-0.000306369
-0.000304254
-0.000298962
-0.00028976
-0.00027588
-0.000257139
-0.000234089
-0.000210205
-0.00018835
-0.000258126
-0.000279247
-0.000292939
-0.000300855
-0.000305019
-0.000306287
-0.00030472
-0.000299936
-0.000291121
-0.000277334
-0.000258252
-0.000234416
-0.000209596
-0.00018713
-0.000256641
-0.000277867
-0.000291778
-0.0003
-0.000304542
-0.000306232
-0.000305082
-0.000300667
-0.000292093
-0.000278294
-0.000258863
-0.000234361
-0.000208778
-0.000185705
-0.000255522
-0.000276882
-0.000290975
-0.00029943
-0.000304231
-0.000306198
-0.000305314
-0.000301116
-0.000292646
-0.000278747
-0.000258971
-0.000233905
-0.00020771
-0.000184109
-0.000254751
-0.000276255
-0.000290498
-0.000299113
-0.000304066
-0.000306176
-0.000305422
-0.00030131
-0.000292835
-0.000278776
-0.000258665
-0.000233121
-0.000206449
-0.000182423
-0.000254312
-0.000275935
-0.000290295
-0.000299006
-0.000304021
-0.000306171
-0.000305444
-0.000301323
-0.000292758
-0.000278492
-0.000258055
-0.000232108
-0.000205074
-0.000180726
-0.000254166
-0.000275868
-0.000290311
-0.000299069
-0.000304081
-0.000306201
-0.000305429
-0.000301224
-0.000292504
-0.000277996
-0.000257248
-0.000230965
-0.000203666
-0.000179096
-0.000254254
-0.000276
-0.000290498
-0.000299268
-0.000304238
-0.000306282
-0.00030541
-0.000301067
-0.000292147
-0.00027738
-0.00025634
-0.000229785
-0.000202305
-0.000177607
-0.000254506
-0.000276272
-0.000290806
-0.00029957
-0.000304475
-0.000306414
-0.000305408
-0.000300894
-0.000291755
-0.000276729
-0.000255422
-0.000228653
-0.000201063
-0.000176319
-0.000254849
-0.000276624
-0.000291184
-0.000299935
-0.000304769
-0.00030659
-0.000305436
-0.000300742
-0.000291382
-0.000276112
-0.000254574
-0.000227642
-0.000199998
-0.000175274
-0.000255213
-0.000277001
-0.000291586
-0.000300327
-0.000305095
-0.000306802
-0.000305502
-0.000300635
-0.00029107
-0.000275582
-0.00025385
-0.0002268
-0.000199144
-0.000174481
-0.000255547
-0.000277357
-0.000291973
-0.000300715
-0.000305431
-0.000307037
-0.000305606
-0.000300584
-0.000290838
-0.000275166
-0.00025328
-0.00022615
-0.000198509
-0.000173926
-0.000255814
-0.000277657
-0.000292315
-0.000301073
-0.000305756
-0.000307282
-0.000305742
-0.000300589
-0.000290694
-0.000274873
-0.000252871
-0.00022569
-0.000198076
-0.00017358
-0.000255996
-0.000277883
-0.000292592
-0.000301382
-0.000306054
-0.000307524
-0.0003059
-0.000300644
-0.000290633
-0.000274697
-0.000252609
-0.000225399
-0.000197818
-0.000173405
-0.000256084
-0.000278026
-0.000292794
-0.000301631
-0.000306312
-0.000307749
-0.000306067
-0.000300737
-0.00029064
-0.000274622
-0.000252474
-0.00022525
-0.000197699
-0.000173363
-0.000256083
-0.00027809
-0.000292921
-0.000301814
-0.000306521
-0.000307949
-0.000306231
-0.000300852
-0.000290698
-0.000274624
-0.000252438
-0.000225208
-0.000197683
-0.000173411
-0.00025601
-0.000278084
-0.000292978
-0.000301934
-0.00030668
-0.000308116
-0.000306383
-0.000300977
-0.000290789
-0.000274682
-0.000252473
-0.000225243
-0.000197737
-0.000173514
-0.000255884
-0.000278019
-0.000292974
-0.000301997
-0.00030679
-0.000308248
-0.000306517
-0.0003011
-0.000290898
-0.000274775
-0.000252555
-0.000225327
-0.000197834
-0.000173639
-0.000255725
-0.000277909
-0.000292921
-0.000302009
-0.000306857
-0.000308347
-0.000306629
-0.000301216
-0.000291014
-0.000274887
-0.000252665
-0.000225438
-0.000197949
-0.000173767
-0.000255545
-0.000277768
-0.00029283
-0.00030198
-0.000306886
-0.000308416
-0.000306721
-0.000301321
-0.000291129
-0.000275008
-0.000252787
-0.00022556
-0.000198069
-0.000173885
-0.000255354
-0.000277606
-0.000292713
-0.00030192
-0.000306883
-0.000308459
-0.000306795
-0.000301416
-0.000291239
-0.000275129
-0.000252912
-0.000225683
-0.000198184
-0.000173985
-0.000255156
-0.000277432
-0.000292579
-0.000301839
-0.000306857
-0.000308481
-0.000306852
-0.000301499
-0.000291343
-0.000275247
-0.000253036
-0.000225802
-0.000198288
-0.000174066
-0.000254956
-0.000277252
-0.000292436
-0.000301745
-0.000306815
-0.000308489
-0.000306898
-0.000301573
-0.000291441
-0.00027536
-0.000253155
-0.000225915
-0.000198383
-0.000174131
-0.000254759
-0.000277071
-0.00029229
-0.000301645
-0.000306766
-0.000308488
-0.000306936
-0.000301642
-0.000291534
-0.00027547
-0.00025327
-0.000226023
-0.000198471
-0.000174187
-0.000254566
-0.000276893
-0.000292145
-0.000301545
-0.000306716
-0.000308485
-0.000306972
-0.00030171
-0.000291626
-0.000275578
-0.000253383
-0.000226128
-0.000198556
-0.000174239
-0.000254378
-0.00027672
-0.000292007
-0.000301451
-0.000306671
-0.000308486
-0.000307013
-0.00030178
-0.00029172
-0.000275686
-0.000253496
-0.000226233
-0.000198642
-0.000174296
-0.000254198
-0.000276556
-0.000291878
-0.000301368
-0.000306636
-0.000308497
-0.000307062
-0.000301858
-0.000291817
-0.000275795
-0.000253607
-0.000226339
-0.000198733
-0.000174362
-0.000254028
-0.000276405
-0.000291763
-0.000301299
-0.000306616
-0.000308521
-0.000307124
-0.000301946
-0.000291921
-0.000275904
-0.000253718
-0.000226445
-0.00019883
-0.000174441
-0.000253872
-0.000276271
-0.000291666
-0.000301249
-0.000306613
-0.000308563
-0.000307203
-0.000302047
-0.00029203
-0.000276013
-0.000253823
-0.000226549
-0.000198929
-0.000174532
-0.000253736
-0.000276159
-0.000291591
-0.000301219
-0.000306631
-0.000308627
-0.000307299
-0.00030216
-0.000292143
-0.000276117
-0.000253919
-0.000226644
-0.000199026
-0.000174634
-0.000253629
-0.000276076
-0.000291543
-0.000301215
-0.000306675
-0.000308712
-0.000307412
-0.000302282
-0.000292256
-0.000276211
-0.000253999
-0.000226722
-0.000199113
-0.000174742
-0.000253557
-0.000276029
-0.000291528
-0.000301241
-0.000306744
-0.000308817
-0.000307538
-0.00030241
-0.000292365
-0.000276289
-0.000254053
-0.000226772
-0.000199178
-0.000174845
-0.00025353
-0.000276025
-0.000291551
-0.0003013
-0.000306838
-0.000308941
-0.000307676
-0.000302539
-0.000292463
-0.000276343
-0.000254072
-0.000226781
-0.000199206
-0.000174925
-0.000253558
-0.000276073
-0.000291618
-0.000301393
-0.000306956
-0.000309078
-0.000307818
-0.000302663
-0.000292543
-0.000276366
-0.000254046
-0.000226736
-0.000199178
-0.000174956
-0.000253649
-0.000276176
-0.000291728
-0.000301516
-0.000307092
-0.000309222
-0.000307957
-0.000302774
-0.000292599
-0.000276349
-0.000253965
-0.000226624
-0.000199074
-0.00017491
-0.000253802
-0.000276331
-0.000291878
-0.000301665
-0.000307239
-0.000309363
-0.000308083
-0.000302864
-0.000292623
-0.000276286
-0.00025382
-0.000226431
-0.000198873
-0.000174755
-0.000254006
-0.000276524
-0.000292056
-0.000301828
-0.000307383
-0.000309487
-0.000308186
-0.000302928
-0.000292613
-0.000276174
-0.000253607
-0.000226146
-0.000198558
-0.000174461
-0.000254232
-0.000276732
-0.000292242
-0.000301989
-0.000307509
-0.000309584
-0.00030826
-0.000302964
-0.000292572
-0.000276019
-0.00025333
-0.000225768
-0.000198121
-0.000174006
-0.000254434
-0.000276913
-0.000292406
-0.000302126
-0.000307599
-0.000309642
-0.000308305
-0.000302982
-0.000292516
-0.000275837
-0.000253002
-0.000225303
-0.000197561
-0.000173393
-0.000254542
-0.000277021
-0.00029252
-0.000302216
-0.000307637
-0.000309662
-0.000308335
-0.000303008
-0.00029248
-0.000275669
-0.000252651
-0.000224764
-0.000196895
-0.000172658
-0.000254483
-0.000277017
-0.000292572
-0.000302249
-0.000307621
-0.000309656
-0.000308376
-0.000303083
-0.000292527
-0.000275588
-0.000252338
-0.000224197
-0.000196153
-0.000171825
-0.000254148
-0.00027689
-0.000292563
-0.000302201
-0.000307518
-0.000309597
-0.000308419
-0.000303219
-0.000292694
-0.000275653
-0.000252146
-0.00022368
-0.000195388
-0.00017089
-0.000253355
-0.00027679
-0.000292592
-0.000302033
-0.000307218
-0.000309369
-0.000308373
-0.000303348
-0.000292915
-0.000275814
-0.000252049
-0.000223277
-0.000194786
-0.000170227
-0.000253032
-0.000277225
-0.000292909
-0.000301634
-0.000306519
-0.000308806
-0.000308123
-0.000303359
-0.000293043
-0.000275907
-0.000251957
-0.000222921
-0.000194298
-0.000169995
-0.000250852
-0.000277061
-0.000291923
-0.000300042
-0.000305096
-0.000308206
-0.000308517
-0.000304557
-0.000294737
-0.000277743
-0.000253381
-0.000222849
-0.000191065
-0.000163608
-0.000287795
-0.000295804
-0.000297964
-0.000299523
-0.000299465
-0.000297799
-0.000294057
-0.000287984
-0.000279869
-0.000269879
-0.000257496
-0.000242394
-0.000227471
-0.000218231
-0.000286778
-0.000297536
-0.000301722
-0.000303665
-0.000303199
-0.00030105
-0.000297071
-0.000290886
-0.000282424
-0.000271754
-0.000258762
-0.000243597
-0.000228553
-0.00021695
-0.000284833
-0.000296582
-0.000302
-0.000305326
-0.000305926
-0.000304357
-0.000300744
-0.000294695
-0.000285949
-0.000274515
-0.000260482
-0.000244099
-0.000227453
-0.000213013
-0.00028215
-0.000294362
-0.000300442
-0.000304793
-0.000306541
-0.000305831
-0.00030284
-0.000297227
-0.000288517
-0.000276531
-0.000261448
-0.000243811
-0.000226028
-0.000210541
-0.000279795
-0.000292065
-0.00029845
-0.000303408
-0.00030597
-0.000306025
-0.000303621
-0.000298506
-0.000290138
-0.000278129
-0.000262582
-0.000244105
-0.000225404
-0.000209604
-0.000277754
-0.000290035
-0.000296592
-0.000301953
-0.000305116
-0.000305855
-0.000304073
-0.000299504
-0.000291585
-0.00027978
-0.000264034
-0.000244872
-0.000225271
-0.000209075
-0.000276092
-0.000288397
-0.000295085
-0.000300766
-0.000304405
-0.000305711
-0.000304505
-0.000300475
-0.000292982
-0.000281342
-0.000265365
-0.000245545
-0.000225121
-0.000208399
-0.000274888
-0.000287214
-0.000294012
-0.000299957
-0.000303964
-0.000305699
-0.000304932
-0.000301305
-0.000294099
-0.000282511
-0.000266268
-0.000245869
-0.000224743
-0.000207493
-0.000274182
-0.000286502
-0.000293379
-0.00029952
-0.000303775
-0.000305786
-0.000305294
-0.000301907
-0.000294841
-0.000283207
-0.00026669
-0.000245803
-0.000224105
-0.000206393
-0.000273927
-0.000286212
-0.000293134
-0.000299396
-0.000303785
-0.000305929
-0.000305567
-0.000302289
-0.000295251
-0.000283499
-0.000266701
-0.000245398
-0.000223246
-0.000205156
-0.000274014
-0.00028625
-0.000293192
-0.000299508
-0.00030393
-0.000306097
-0.000305775
-0.000302519
-0.000295423
-0.000283492
-0.000266405
-0.000244732
-0.000222228
-0.000203842
-0.00027432
-0.000286511
-0.000293459
-0.000299777
-0.000304165
-0.000306298
-0.000305953
-0.000302641
-0.000295416
-0.000283266
-0.000265888