/*--------------------------------*- C++ -*----------------------------------*\
| =========                 |                                                 |
| \\      /  F ield         | OpenFOAM: The Open Source CFD Toolbox           |
|  \\    /   O peration     | Version:  5.0                                   |
|   \\  /    A nd           | Web:      www.OpenFOAM.org                      |
|    \\/     M anipulation  |                                                 |
\*---------------------------------------------------------------------------*/
FoamFile
{
    version     2.0;
    format      ascii;
    class       surfaceScalarField;
    location    "2";
    object      phi;
}
// * * * * * * * * * * * * * * * * * * * * * * * * * * * * * * * * * * * * * //

dimensions      [0 3 -1 0 0 0 0];

internalField   nonuniform List<scalar> 
85
(
0.00020171
1.04632e-09
0.000201713
-2.4431e-09
0.000201711
1.28651e-09
0.00020175
-3.85256e-08
0.000201896
-1.46559e-07
0.000206799
-4.90298e-06
0.000212076
-5.27618e-06
0.000212744
-6.68733e-07
0.000212812
-6.76261e-08
-3.97116e-07
0.000185573
2.709e-09
0.000185576
-6.03803e-09
0.000185571
6.96021e-09
0.0001856
-6.80399e-08
0.00018555
-9.63034e-08
0.000183486
-2.83864e-06
0.000181442
-3.23256e-06
0.000181314
-5.40314e-07
0.000181364
-1.18157e-07
-2.751e-07
0.0001533
3.29009e-09
0.000153301
-7.08984e-09
0.000153298
1.03426e-08
0.000153288
-5.86125e-08
0.000153208
-1.63614e-08
0.000151699
-1.32951e-06
0.00015007
-1.60309e-06
0.000149815
-2.85402e-07
0.000149778
-8.13139e-08
-1.47116e-07
0.000104891
2.09776e-09
0.000104888
-4.348e-09
0.000104891
7.2861e-09
0.000104859
-2.69611e-08
0.000104827
1.57199e-08
0.000103861
-3.6305e-07
0.000102724
-4.66748e-07
0.000102516
-7.67847e-08
0.000102459
-2.41481e-08
-5.08762e-08
4.03438e-05
4.03395e-05
4.03467e-05
4.03198e-05
4.03355e-05
3.99725e-05
3.95057e-05
3.94289e-05
3.94048e-05
)
;

boundaryField
{
    top
    {
        type            calculated;
        value           uniform 0;
    }
    bottom
    {
        type            symmetryPlane;
        value           uniform 0;
    }
    inlet
    {
        type            calculated;
        value           nonuniform List<scalar> 5(-0.000201711 -0.000185575 -0.000153301 -0.00010489 -4.03417e-05);
    }
    outlet
    {
        type            calculated;
        value           nonuniform List<scalar> 5(0.000213209 0.000181242 0.00014965 0.000102363 3.93539e-05);
    }
    frontAndBack
    {
        type            empty;
        value           nonuniform 0();
    }
}


// ************************************************************************* //
