/*--------------------------------*- C++ -*----------------------------------*\
| =========                 |                                                 |
| \\      /  F ield         | OpenFOAM: The Open Source CFD Toolbox           |
|  \\    /   O peration     | Version:  5.0                                   |
|   \\  /    A nd           | Web:      www.OpenFOAM.org                      |
|    \\/     M anipulation  |                                                 |
\*---------------------------------------------------------------------------*/
FoamFile
{
    version     2.0;
    format      ascii;
    class       surfaceScalarField;
    location    "30";
    object      phi;
}
// * * * * * * * * * * * * * * * * * * * * * * * * * * * * * * * * * * * * * //

dimensions      [0 3 -1 0 0 0 0];

internalField   nonuniform List<scalar> 
19660
(
1.52023e-08
-2.97602e-09
-1.71984e-08
1.86246e-08
-2.4988e-09
-9.27353e-10
1.94872e-08
-1.86726e-09
1.00099e-09
1.91422e-08
-1.33514e-09
1.67672e-09
1.79217e-08
-8.83548e-10
2.10113e-09
1.61837e-08
-4.87615e-10
2.223e-09
1.39788e-08
-5.22818e-11
2.25442e-09
1.12321e-08
3.92794e-10
2.35043e-09
7.93033e-09
7.62191e-10
2.53494e-09
4.28971e-09
9.06003e-10
2.72857e-09
8.66853e-10
4.71667e-10
2.94419e-09
-1.44656e-09
-8.93857e-10
3.19985e-09
-1.76923e-09
-3.1671e-09
3.48181e-09
-4.75673e-09
2.9836e-09
1.73272e-08
-1.1829e-09
-1.91254e-08
2.07276e-08
-2.00268e-09
-3.90482e-09
2.26807e-08
-1.89174e-09
-1.93626e-09
2.35331e-08
-1.71736e-09
-4.76791e-10
2.34727e-08
-1.49404e-09
6.65729e-10
2.29782e-08
-1.21901e-09
1.22177e-09
2.22094e-08
-8.92103e-10
1.60456e-09
2.10911e-08
-5.11384e-10
2.01766e-09
1.94639e-08
-9.69052e-11
2.47973e-09
1.72137e-08
2.05251e-10
2.94237e-09
1.41626e-08
1.3166e-10
3.38054e-09
1.00356e-08
-6.16165e-10
3.8367e-09
4.83926e-09
-2.57535e-09
4.59157e-09
-4.49396e-09
4.57096e-09
1.80635e-08
-8.93783e-10
-1.83588e-08
2.10846e-08
-1.56396e-09
-3.46973e-09
2.29228e-08
-1.66541e-09
-2.07331e-09
2.37701e-08
-1.64814e-09
-9.23763e-10
2.37717e-08
-1.60061e-09
9.94506e-11
2.34416e-08
-1.49869e-09
6.05343e-10
2.29222e-08
-1.33111e-09
9.54365e-10
2.21263e-08
-1.1031e-09
1.38279e-09
2.09358e-08
-8.25082e-10
1.91206e-09
1.91858e-08
-5.67864e-10
2.51438e-09
1.65898e-08
-4.88149e-10
3.20512e-09
1.27558e-08
-8.0034e-10
4.00582e-09
6.95003e-09
-1.81206e-09
5.02973e-09
-2.65696e-09
5.10737e-09
1.81572e-08
-8.3438e-10
-1.82236e-08
2.12351e-08
-1.39494e-09
-3.25792e-09
2.30979e-08
-1.58334e-09
-1.9545e-09
2.39946e-08
-1.6313e-09
-9.21307e-10
2.40196e-08
-1.62829e-09
-3.19226e-12
2.36989e-08
-1.58374e-09
4.01372e-10
2.31859e-08
-1.4912e-09
6.69191e-10
2.23806e-08
-1.34574e-09
1.04323e-09
2.11253e-08
-1.15147e-09
1.57505e-09
1.9226e-08
-9.4037e-10
2.26292e-09
1.64109e-08
-8.03718e-10
3.11958e-09
1.23275e-08
-8.70423e-10
4.14108e-09
6.46919e-09
-1.30954e-09
5.34274e-09
-1.61239e-09
5.41894e-09
1.81903e-08
-7.47268e-10
-1.82848e-08
2.13259e-08
-1.25407e-09
-3.28822e-09
2.31855e-08
-1.44927e-09
-2.00397e-09
2.40742e-08
-1.51309e-09
-1.01514e-09
2.40994e-08
-1.52696e-09
-1.32518e-10
2.37859e-08
-1.50983e-09
2.35198e-10
2.32855e-08
-1.45768e-09
4.63124e-10
2.24894e-08
-1.36099e-09
8.06778e-10
2.12102e-08
-1.22093e-09
1.34223e-09
1.92122e-08
-1.05145e-09
2.10014e-09
1.62057e-08
-9.09382e-10
3.10127e-09
1.1904e-08
-8.80293e-10
4.29932e-09
6.06472e-09
-1.08047e-09
5.59746e-09
-1.17903e-09
5.62587e-09
1.82142e-08
-6.44232e-10
-1.83247e-08
2.13679e-08
-1.09423e-09
-3.32576e-09
2.32283e-08
-1.27782e-09
-2.04256e-09
2.41192e-08
-1.34593e-09
-1.06664e-09
2.41544e-08
-1.36977e-09
-1.98608e-10
2.3859e-08
-1.36877e-09
1.49983e-10
2.33852e-08
-1.3384e-09
3.5087e-10
2.26158e-08
-1.27123e-09
6.75231e-10
2.13441e-08
-1.16834e-09
1.21281e-09
1.93072e-08
-1.03942e-09
2.01623e-09
1.61998e-08
-9.21538e-10
3.10894e-09
1.17689e-08
-8.72993e-10
4.41185e-09
5.9082e-09
-9.89632e-10
5.75771e-09
-1.03146e-09
5.75545e-09
1.82244e-08
-5.58005e-10
-1.83182e-08
2.13894e-08
-9.53506e-10
-3.31815e-09
2.32647e-08
-1.12035e-09
-2.04379e-09
2.41712e-08
-1.18443e-09
-1.07679e-09
2.4223e-08
-1.20868e-09
-2.19282e-10
2.39474e-08
-1.21172e-09
1.14156e-10
2.34997e-08
-1.19101e-09
2.96803e-10
2.27583e-08
-1.14236e-09
6.08236e-10
2.15047e-08
-1.06707e-09
1.14628e-09
1.94571e-08
-9.7424e-10
1.97399e-09
1.62996e-08
-8.89832e-10
3.11564e-09
1.17942e-08
-8.54143e-10
4.4754e-09
5.89692e-09
-9.54021e-10
5.85029e-09
-9.82924e-10
5.84353e-09
1.82292e-08
-4.90815e-10
-1.83039e-08
2.14079e-08
-8.42221e-10
-3.30248e-09
2.33028e-08
-9.90359e-10
-2.03597e-09
2.42275e-08
-1.04527e-09
-1.07274e-09
2.42967e-08
-1.06402e-09
-2.20363e-10
2.40395e-08
-1.06414e-09
1.05239e-10
2.36132e-08
-1.04555e-09
2.77443e-10
2.28944e-08
-1.00742e-09
5.79739e-10
2.16582e-08
-9.5269e-10
1.11593e-09
1.96109e-08
-8.89338e-10
1.95428e-09
1.64277e-08
-8.3674e-10
3.12044e-09
1.18752e-08
-8.23849e-10
4.51164e-09
5.93313e-09
-9.30306e-10
5.90769e-09
-9.62083e-10
5.90775e-09
1.82365e-08
-4.31083e-10
-1.83036e-08
2.14318e-08
-7.45604e-10
-3.30443e-09
2.33443e-08
-8.74578e-10
-2.03937e-09
2.42844e-08
-9.18111e-10
-1.0762e-09
2.43683e-08
-9.29043e-10
-2.25327e-10
2.41256e-08
-9.23801e-10
9.79998e-11
2.37148e-08
-9.04252e-10
2.66141e-10
2.30113e-08
-8.72214e-10
5.64394e-10
2.17867e-08
-8.32601e-10
1.09885e-09
1.97405e-08
-7.92981e-10
1.94203e-09
1.65408e-08
-7.68428e-10
3.12209e-09
1.19541e-08
-7.8063e-10
4.53349e-09
5.97047e-09
-9.03815e-10
5.94708e-09
-9.52545e-10
5.95667e-09
1.82509e-08
-3.70229e-10
-1.83191e-08
2.14657e-08
-6.48447e-10
-3.3243e-09
2.33929e-08
-7.57171e-10
-2.05573e-09
2.43457e-08
-7.87988e-10
-1.09188e-09
2.4441e-08
-7.91102e-10
-2.39612e-10
2.42084e-08
-7.80964e-10
8.5488e-11
2.3807e-08
-7.60185e-10
2.54113e-10
2.31117e-08
-7.32936e-10
5.52272e-10
2.18924e-08
-7.05861e-10
1.08716e-09
1.98448e-08
-6.8649e-10
1.93358e-09
1.6632e-08
-6.87391e-10
3.12267e-09
1.20188e-08
-7.25238e-10
4.54831e-09
6.00053e-09
-8.71268e-10
5.97614e-09
-9.51387e-10
5.99532e-09
1.82726e-08
-3.07599e-10
-1.83424e-08
2.15095e-08
-5.46415e-10
-3.35134e-09
2.34509e-08
-6.32712e-10
-2.07706e-09
2.4416e-08
-6.4988e-10
-1.11209e-09
2.45212e-08
-6.45993e-10
-2.56736e-10
2.42957e-08
-6.32192e-10
7.25421e-11
2.38987e-08
-6.10842e-10
2.44483e-10
2.32057e-08
-5.88548e-10
5.4497e-10
2.19864e-08
-5.73251e-10
1.08146e-09
1.99349e-08
-5.72397e-10
1.93004e-09
1.67114e-08
-5.96986e-10
3.12439e-09
1.20775e-08
-6.60058e-10
4.55946e-09
6.03046e-09
-8.31932e-10
5.99848e-09
-9.51872e-10
6.02702e-09
1.82991e-08
-2.46284e-10
-1.83676e-08
2.1561e-08
-4.42868e-10
-3.37804e-09
2.35181e-08
-5.05041e-10
-2.09591e-09
2.44962e-08
-5.08841e-10
-1.12827e-09
2.46118e-08
-4.98577e-10
-2.69514e-10
2.4392e-08
-4.81611e-10
6.50113e-11
2.39959e-08
-4.60578e-10
2.42669e-10
2.33008e-08
-4.43788e-10
5.46823e-10
2.20776e-08
-4.39667e-10
1.08447e-09
2.00203e-08
-4.55709e-10
1.93336e-09
1.67874e-08
-5.01617e-10
3.12897e-09
1.21377e-08
-5.88118e-10
4.5686e-09
6.06556e-09
-7.84682e-10
6.0158e-09
-9.43599e-10
6.05342e-09
1.83295e-08
-1.89706e-10
-1.83934e-08
2.16186e-08
-3.43318e-10
-3.40144e-09
2.35918e-08
-3.8178e-10
-2.10795e-09
2.45844e-08
-3.73315e-10
-1.13735e-09
2.47116e-08
-3.56905e-10
-2.75561e-10
2.44965e-08
-3.37468e-10
6.65449e-11
2.40988e-08
-3.17732e-10
2.51685e-10
2.33982e-08
-3.06435e-10
5.59639e-10
2.21679e-08
-3.12036e-10
1.09751e-09
2.01032e-08
-3.42463e-10
1.94427e-09
1.68616e-08
-4.0639e-10
3.13771e-09
1.22e-08
-5.12761e-10
4.5771e-09
6.10535e-09
-7.28551e-10
6.02935e-09
-9.17325e-10
6.07516e-09
1.83615e-08
-1.40692e-10
-1.8418e-08
2.16782e-08
-2.54688e-10
-3.41855e-09
2.36682e-08
-2.71366e-10
-2.11223e-09
2.46764e-08
-2.51966e-10
-1.13915e-09
2.48156e-08
-2.29994e-10
-2.7305e-10
2.46041e-08
-2.08939e-10
7.83831e-11
2.42028e-08
-1.90715e-10
2.70897e-10
2.34945e-08
-1.83983e-10
5.82175e-10
2.22544e-08
-1.97177e-10
1.11996e-09
2.01806e-08
-2.38448e-10
1.96245e-09
1.69305e-08
-3.15987e-10
3.15083e-09
1.22595e-08
-4.36996e-10
4.58575e-09
6.14517e-09
-6.63482e-10
6.03984e-09
-8.68549e-10
6.09232e-09
1.83937e-08
-1.01461e-10
-1.84407e-08
2.17374e-08
-1.81434e-10
-3.43066e-09
2.37436e-08
-1.80158e-10
-2.10966e-09
2.47677e-08
-1.52053e-10
-1.13398e-09
2.49178e-08
-1.25607e-10
-2.61796e-10
2.47087e-08
-1.03192e-10
9.84795e-11
2.43025e-08
-8.60963e-11
2.97861e-10
2.35847e-08
-8.25216e-11
6.12383e-10
2.23326e-08
-1.00672e-10
1.15003e-09
2.02478e-08
-1.48737e-10
1.98744e-09
1.69888e-08
-2.34611e-10
3.16845e-09
1.23102e-08
-3.63732e-10
4.59539e-09
6.17978e-09
-5.90848e-10
6.04781e-09
-7.97747e-10
6.10465e-09
1.84256e-08
-7.33995e-11
-1.84618e-08
2.17943e-08
-1.25697e-10
-3.43876e-09
2.38152e-08
-1.11657e-10
-2.1023e-09
2.48537e-08
-7.79304e-11
-1.12304e-09
2.50131e-08
-4.85088e-11
-2.44212e-10
2.48054e-08
-2.50527e-11
1.24311e-10
2.43935e-08
-8.50592e-12
3.30227e-10
2.36651e-08
-6.53562e-12
6.48134e-10
2.23994e-08
-2.67561e-11
1.18579e-09
2.03018e-08
-7.7358e-11
2.01805e-09
1.70331e-08
-1.65823e-10
3.1902e-09
1.2348e-08
-2.95795e-10
4.60652e-09
6.20585e-09
-5.13237e-10
6.05386e-09
-7.08568e-10
6.112e-09
1.84552e-08
-5.72078e-11
-1.848e-08
2.18446e-08
-8.94334e-11
-3.4407e-09
2.38792e-08
-6.77393e-11
-2.09196e-09
2.49302e-08
-3.16878e-11
-1.10814e-09
2.50971e-08
-9.69808e-13
-2.22679e-10
2.48899e-08
2.30916e-11
1.53338e-10
2.4472e-08
3.95315e-11
3.6542e-10
2.37325e-08
4.14024e-11
6.86734e-10
2.24524e-08
2.18554e-11
1.22494e-09
2.03408e-08
-2.712e-11
2.05269e-09
1.70618e-08
-1.12352e-10
3.21507e-09
1.23712e-08
-2.35947e-10
4.61932e-09
6.22191e-09
-4.34226e-10
6.05867e-09
-6.06435e-10
6.11469e-09
1.84808e-08
-5.20816e-11
-1.8495e-08
2.18858e-08
-7.26547e-11
-3.4375e-09
2.39329e-08
-4.86811e-11
-2.08019e-09
2.49944e-08
-1.3711e-11
-1.09099e-09
2.51673e-08
1.65231e-11
-1.99085e-10
2.49601e-08
4.04544e-11
1.83592e-10
2.45362e-08
5.69402e-11
4.0155e-10
2.37858e-08
5.99785e-11
7.26428e-10
2.24915e-08
4.3474e-11
1.26566e-09
2.03653e-08
6.78337e-14
2.08964e-09
1.70757e-08
-7.63543e-11
3.2423e-09
1.23804e-08
-1.86847e-10
4.6339e-09
6.22831e-09
-3.57758e-10
6.06298e-09
-4.97229e-10
6.11356e-09
1.85006e-08
-5.63003e-11
-1.85058e-08
2.19164e-08
-7.46936e-11
-3.43018e-09
2.39747e-08
-5.34234e-11
-2.06815e-09
2.50448e-08
-2.24826e-11
-1.07342e-09
2.52223e-08
5.52389e-12
-1.7571e-10
2.50149e-08
2.85008e-11
2.12615e-10
2.45854e-08
4.5049e-11
4.35881e-10
2.38249e-08
5.02215e-11
7.64387e-10
2.2517e-08
3.8844e-11
1.30489e-09
2.03766e-08
4.47981e-12
2.12585e-09
1.70764e-08
-5.83767e-11
3.27012e-09
1.23769e-08
-1.50061e-10
4.64953e-09
6.22571e-09
-2.87227e-10
6.06695e-09
-3.87329e-10
6.1098e-09
1.85155e-08
-6.79144e-11
-1.85137e-08
2.19387e-08
-9.22326e-11
-3.42263e-09
2.40055e-08
-7.76221e-11
-2.05779e-09
2.50818e-08
-5.31009e-11
-1.05821e-09
2.52622e-08
-2.87854e-11
-1.55849e-10
2.50542e-08
-7.29281e-12
2.36629e-10
2.46197e-08
9.51808e-12
4.6408e-10
2.38501e-08
1.7706e-11
7.95658e-10
2.25297e-08
1.29408e-11
1.33804e-09
2.03761e-08
-9.91482e-12
2.1572e-09
1.70655e-08
-5.5933e-11
3.2953e-09
1.23619e-08
-1.25052e-10
4.66446e-09
6.21473e-09
-2.25252e-10
6.07049e-09
-2.83569e-10
6.10453e-09
1.85261e-08
-8.49581e-11
-1.85191e-08
2.19551e-08
-1.20672e-10
-3.41792e-09
2.40275e-08
-1.15935e-10
-2.04975e-09
2.51076e-08
-9.95458e-11
-1.04656e-09
2.52893e-08
-7.95992e-11
-1.40954e-10
2.50802e-08
-5.98081e-11
2.54e-10
2.46415e-08
-4.24387e-11
4.84286e-10
2.38643e-08
-3.05205e-11
8.18453e-10
2.25331e-08
-2.7631e-11
1.363e-09
2.03674e-08
-3.79306e-11
2.1823e-09
1.70468e-08
-6.56037e-11
3.31672e-09
1.23392e-08
-1.10476e-10
4.67811e-09
6.19794e-09
-1.73371e-10
6.0739e-09
-1.91392e-10
6.09897e-09
1.85309e-08
-1.05218e-10
-1.85208e-08
2.19644e-08
-1.55556e-10
-3.41612e-09
2.40402e-08
-1.6298e-10
-2.04467e-09
2.51229e-08
-1.56034e-10
-1.03937e-09
2.53051e-08
-1.41192e-10
-1.3091e-10
2.50951e-08
-1.22979e-10
2.65251e-10
2.46534e-08
-1.04552e-10
4.97043e-10
2.38706e-08
-8.84564e-11
8.3349e-10
2.25307e-08
-7.73566e-11
1.38032e-09
2.03546e-08
-7.48182e-11
2.20117e-09
1.70247e-08
-8.40769e-11
3.33437e-09
1.23131e-08
-1.04881e-10
4.69046e-09
6.17876e-09
-1.32519e-10
6.0774e-09
-1.13591e-10
6.09392e-09
1.85292e-08
-1.2619e-10
-1.85185e-08
2.19654e-08
-1.92524e-10
-3.41675e-09
2.40431e-08
-2.1294e-10
-2.04361e-09
2.51275e-08
-2.15665e-10
-1.03801e-09
2.53101e-08
-2.06418e-10
-1.27814e-10
2.50998e-08
-1.9016e-10
2.6948e-10
2.46565e-08
-1.70869e-10
5.02637e-10
2.387e-08
-1.50745e-10
8.41254e-10
2.2524e-08
-1.31782e-10
1.39094e-09
2.03394e-08
-1.16872e-10
2.21445e-09
1.70009e-08
-1.08663e-10
3.34873e-09
1.2285e-08
-1.06962e-10
4.70224e-09
6.15779e-09
-1.03527e-10
6.08171e-09
-5.29602e-11
6.08997e-09
1.85217e-08
-1.4426e-10
-1.85137e-08
2.19588e-08
-2.26313e-10
-3.42061e-09
2.40371e-08
-2.59274e-10
-2.0477e-09
2.51223e-08
-2.70913e-10
-1.04304e-09
2.53055e-08
-2.66955e-10
-1.33118e-10
2.50956e-08
-2.53055e-10
2.64842e-10
2.46521e-08
-2.33575e-10
4.99162e-10
2.3864e-08
-2.1044e-10
8.40224e-10
2.2514e-08
-1.84997e-10
1.39356e-09
2.0323e-08
-1.59478e-10
2.22137e-09
1.6977e-08
-1.36097e-10
3.35895e-09
1.22562e-08
-1.15042e-10
4.71303e-09
6.13557e-09
-8.65322e-11
6.08706e-09
-1.1994e-11
6.08741e-09
1.85107e-08
-1.56804e-10
-1.85079e-08
2.19473e-08
-2.52657e-10
-3.4273e-09
2.40257e-08
-2.96541e-10
-2.05652e-09
2.51112e-08
-3.15763e-10
-1.05349e-09
2.52955e-08
-3.16432e-10
-1.44985e-10
2.50866e-08
-3.04917e-10
2.52821e-10
2.46442e-08
-2.85922e-10
4.87969e-10
2.38562e-08
-2.60888e-10
8.3092e-10
2.25045e-08
-2.30816e-10
1.38794e-09
2.0309e-08
-1.97341e-10
2.22105e-09
1.69569e-08
-1.6229e-10
3.36402e-09
1.22309e-08
-1.26369e-10
4.72154e-09
6.11549e-09
-8.01774e-11
6.09273e-09
9.79805e-12
6.08662e-09
1.84977e-08
-1.62665e-10
-1.85014e-08
2.19334e-08
-2.68344e-10
-3.4365e-09
2.40115e-08
-3.20537e-10
-2.0691e-09
2.50974e-08
-3.45639e-10
-1.06849e-09
2.52832e-08
-3.50452e-10
-1.6169e-10
2.50764e-08
-3.41708e-10
2.3601e-10
2.46362e-08
-3.23895e-10
4.71584e-10
2.385e-08
-2.98104e-10
8.16105e-10
2.24987e-08
-2.65283e-10
1.37643e-09
2.0301e-08
-2.26697e-10
2.21501e-09
1.69439e-08
-1.83977e-10
3.36468e-09
1.22128e-08
-1.38309e-10
4.72772e-09
6.10015e-09
-8.20213e-11
6.09853e-09
1.52049e-11
6.08787e-09
1.84848e-08
-1.61353e-10
-1.84953e-08
2.19194e-08
-2.71521e-10
-3.44738e-09
2.39972e-08
-3.28985e-10
-2.08388e-09
2.50836e-08
-3.58004e-10
-1.08607e-09
2.52714e-08
-3.6623e-10
-1.81491e-10
2.50675e-08
-3.60377e-10
2.15338e-10
2.46306e-08
-3.44512e-10
4.51177e-10
2.38475e-08
-3.1934e-10
7.97408e-10
2.24981e-08
-2.85823e-10
1.36086e-09
2.02999e-08
-2.45156e-10
2.205e-09
1.69392e-08
-1.98924e-10
3.36192e-09
1.22029e-08
-1.48781e-10
4.73191e-09
6.09032e-09
-8.94055e-11
6.10459e-09
7.50866e-12
6.09141e-09
1.84731e-08
-1.53695e-10
-1.84896e-08
2.19062e-08
-2.63036e-10
-3.45715e-09
2.39842e-08
-3.21726e-10
-2.09926e-09
2.50713e-08
-3.52312e-10
-1.10445e-09
2.52613e-08
-3.62768e-10
-2.02586e-10
2.50609e-08
-3.594e-10
1.92656e-10
2.46282e-08
-3.45898e-10
4.28157e-10
2.38489e-08
-3.22699e-10
7.75991e-10
2.25025e-08
-2.90713e-10
1.34256e-09
2.0305e-08
-2.51102e-10
2.19221e-09
1.69418e-08
-2.05531e-10
3.35662e-09
1.22003e-08
-1.56049e-10
4.73441e-09
6.08545e-09
-1.00059e-10
6.11073e-09
-1.0288e-11
6.09692e-09
1.84622e-08
-1.40163e-10
-1.84843e-08
2.18939e-08
-2.43483e-10
-3.46637e-09
2.39723e-08
-2.99679e-10
-2.11412e-09
2.50607e-08
-3.29628e-10
-1.12243e-09
2.52536e-08
-3.41188e-10
-2.23092e-10
2.50569e-08
-3.39855e-10
1.70609e-10
2.46289e-08
-3.28849e-10
4.05383e-10
2.38541e-08
-3.08641e-10
7.54443e-10
2.25113e-08
-2.80081e-10
1.32375e-09
2.03153e-08
-2.44349e-10
2.1784e-09
1.69503e-08
-2.03233e-10
3.34996e-09
1.22039e-08
-1.59078e-10
4.73565e-09
6.08517e-09
-1.12151e-10
6.11669e-09
-3.49158e-11
6.10375e-09
1.84536e-08
-1.2135e-10
-1.84809e-08
2.1884e-08
-2.14206e-10
-3.47449e-09
2.39631e-08
-2.65156e-10
-2.12709e-09
2.50536e-08
-2.92636e-10
-1.13849e-09
2.52496e-08
-3.04312e-10
-2.41375e-10
2.5057e-08
-3.04688e-10
1.51185e-10
2.46337e-08
-2.96185e-10
3.85352e-10
2.38634e-08
-2.79563e-10
7.35175e-10
2.25244e-08
-2.55833e-10
1.3067e-09
2.03302e-08
-2.26218e-10
2.16554e-09
1.69638e-08
-1.9262e-10
3.34335e-09
1.22127e-08
-1.57581e-10
4.7363e-09
6.08847e-09
-1.24087e-10
6.12257e-09
-6.3502e-11
6.11123e-09
1.84481e-08
-9.9271e-11
-1.84785e-08
2.1877e-08
-1.78319e-10
-3.4796e-09
2.39574e-08
-2.21659e-10
-2.13724e-09
2.50505e-08
-2.4526e-10
-1.15139e-09
2.52501e-08
-2.56196e-10
-2.56124e-10
2.50618e-08
-2.57944e-10
1.35481e-10
2.46429e-08
-2.52084e-10
3.69647e-10
2.38767e-08
-2.39463e-10
7.2021e-10
2.2541e-08
-2.21424e-10
1.29341e-09
2.03484e-08
-1.99349e-10
2.15539e-09
1.69809e-08
-1.75292e-10
3.33812e-09
1.2225e-08
-1.51867e-10
4.7371e-09
6.09366e-09
-1.34481e-10
6.12853e-09
-9.42806e-11
6.11877e-09
1.84458e-08
-7.65406e-11
-1.84769e-08
2.18735e-08
-1.39895e-10
-3.48103e-09
2.39559e-08
-1.74047e-10
-2.14337e-09
2.50523e-08
-1.92744e-10
-1.15992e-09
2.52558e-08
-2.02177e-10
-2.65967e-10
2.50716e-08
-2.04707e-10
1.24813e-10
2.46567e-08
-2.01305e-10
3.5899e-10
2.38939e-08
-1.92884e-10
7.10387e-10
2.25608e-08
-1.8091e-10
1.28482e-09
2.03693e-08
-1.67038e-10
2.14893e-09
1.70005e-08
-1.53492e-10
3.33501e-09
1.22403e-08
-1.42892e-10
4.73835e-09
6.10153e-09
-1.42909e-10
6.13414e-09
-1.249e-10
6.12655e-09
1.8447e-08
-5.46491e-11
-1.84775e-08
2.1874e-08
-1.02132e-10
-3.47983e-09
2.39587e-08
-1.26739e-10
-2.14572e-09
2.5059e-08
-1.40184e-10
-1.16409e-09
2.52668e-08
-1.4768e-10
-2.70804e-10
2.50864e-08
-1.50482e-10
1.19811e-10
2.46748e-08
-1.4895e-10
3.53939e-10
2.39146e-08
-1.44387e-10
7.05798e-10
2.25831e-08
-1.38408e-10
1.28113e-09
2.03921e-08
-1.32725e-10
2.14644e-09
1.7022e-08
-1.29712e-10
3.33425e-09
1.22581e-08
-1.31919e-10
4.74007e-09
6.11218e-09
-1.49161e-10
6.1391e-09
-1.52368e-10
6.13403e-09
1.84511e-08
-3.54533e-11
-1.84792e-08
2.18777e-08
-6.83891e-11
-3.47591e-09
2.39654e-08
-8.39518e-11
-2.14444e-09
2.507e-08
-9.23016e-11
-1.16404e-09
2.5282e-08
-9.76595e-11
-2.70965e-10
2.51053e-08
-1.00301e-10
1.19957e-10
2.46963e-08
-1.00115e-10
3.54652e-10
2.39377e-08
-9.87027e-11
7.06803e-10
2.26069e-08
-9.79946e-11
1.28235e-09
2.04156e-08
-9.97857e-11
2.1479e-09
1.70442e-08
-1.06397e-10
3.33585e-09
1.22772e-08
-1.20185e-10
4.74227e-09
6.12389e-09
-1.52747e-10
6.14363e-09
-1.74962e-10
6.14078e-09
1.84574e-08
-2.06661e-11
-1.84813e-08
2.18844e-08
-4.1481e-11
-3.46998e-09
2.39754e-08
-4.91601e-11
-2.14027e-09
2.50845e-08
-5.29419e-11
-1.1605e-09
2.5301e-08
-5.61501e-11
-2.67206e-10
2.51276e-08
-5.81878e-11
1.24416e-10
2.47204e-08
-5.87507e-11
3.60015e-10
2.39623e-08
-5.97105e-11
7.12685e-10
2.26311e-08
-6.31577e-11
1.28802e-09
2.04389e-08
-7.10521e-11
2.15281e-09
1.70661e-08
-8.55877e-11
3.33943e-09
1.22967e-08
-1.0878e-10
4.74469e-09
6.13663e-09
-1.53499e-10
6.14727e-09
-1.90927e-10
6.14675e-09
1.84657e-08
-1.04009e-11
-1.84855e-08
2.1894e-08
-2.27855e-11
-3.46359e-09
2.39885e-08
-2.42233e-11
-2.13448e-09
2.51023e-08
-2.42799e-11
-1.15477e-09
2.5323e-08
-2.54586e-11
-2.61011e-10
2.51523e-08
-2.65617e-11
1.31772e-10
2.47461e-08
-2.73506e-11
3.68644e-10
2.39877e-08
-2.99071e-11
7.21978e-10
2.26552e-08
-3.63398e-11
1.29708e-09
2.04613e-08
-4.85842e-11
2.16033e-09
1.70873e-08
-6.87445e-11
3.34442e-09
1.23162e-08
-9.84384e-11
4.74701e-09
6.15003e-09
-1.51212e-10
6.14998e-09
-1.98698e-10
6.15176e-09
1.84755e-08
-4.69434e-12
-1.84911e-08
2.19065e-08
-1.21736e-11
-3.45873e-09
2.40043e-08
-9.43573e-12
-2.12802e-09
2.51222e-08
-6.67708e-12
-1.14831e-09
2.53467e-08
-6.00829e-12
-2.53944e-10
2.51783e-08
-6.08945e-12
1.40427e-10
2.47724e-08
-6.77492e-12
3.78929e-10
2.40127e-08
-1.01723e-11
7.32977e-10
2.26781e-08
-1.83374e-11
1.30765e-09
2.04823e-08
-3.31537e-11
2.16906e-09
1.71071e-08
-5.6425e-11
3.34982e-09
1.23351e-08
-8.93941e-11
4.74882e-09
6.16323e-09
-1.45589e-10
6.15193e-09
-1.97473e-10
6.15577e-09
1.84855e-08
-3.28498e-12
-1.84971e-08
2.19207e-08
-8.61216e-12
-3.45627e-09
2.40217e-08
-3.95116e-12
-2.12223e-09
2.51432e-08
7.50596e-13
-1.14212e-09
2.53709e-08
3.028e-12
-2.46967e-10
2.5204e-08
3.96937e-12
1.49089e-10
2.47976e-08
3.67802e-12
3.89263e-10
2.40361e-08
1.36125e-13
7.44035e-10
2.2699e-08
-8.62295e-12
1.31829e-09
2.0501e-08
-2.43311e-11
2.17757e-09
1.71248e-08
-4.83237e-11
3.35473e-09
1.23526e-08
-8.14465e-11
4.74983e-09
6.17575e-09
-1.36412e-10
6.15295e-09
-1.87034e-10
6.1589e-09
1.8495e-08
-5.2096e-12
-1.85033e-08
2.19351e-08
-1.08845e-11
-3.45576e-09
2.40393e-08
-6.06459e-12
-2.11811e-09
2.5164e-08
-4.39638e-13
-1.13678e-09
2.53942e-08
3.03631e-12
-2.40584e-10
2.52281e-08
4.90407e-12
1.57216e-10
2.48207e-08
5.14505e-12
3.99093e-10
2.40569e-08
1.97567e-12
7.54631e-10
2.2717e-08
-6.37259e-12
1.32843e-09
2.05169e-08
-2.13508e-11
2.18537e-09
1.714e-08
-4.38751e-11
3.35887e-09
1.23681e-08
-7.43242e-11
4.7501e-09
6.18723e-09
-1.23853e-10
6.15323e-09
-1.67589e-10
6.16124e-09
1.85032e-08
-9.42124e-12
-1.85094e-08
2.19489e-08
-1.69871e-11
-3.45751e-09
2.40561e-08
-1.31111e-11
-2.11629e-09
2.51829e-08
-7.39436e-12
-1.13329e-09
2.54147e-08
-3.2057e-12
-2.36002e-10
2.52488e-08
-5.99187e-13
1.63447e-10
2.48399e-08
1.77879e-13
4.06947e-10
2.40736e-08
-2.31427e-12
7.63244e-10
2.27309e-08
-9.49277e-12
1.33655e-09
2.05288e-08
-2.24567e-11
2.19135e-09
1.71515e-08
-4.17608e-11
3.36151e-09
1.23802e-08
-6.73629e-11
4.7495e-09
6.19636e-09
-1.08283e-10
6.15292e-09
-1.40593e-10
6.16272e-09
1.85101e-08
-1.48078e-11
-1.8515e-08
2.1961e-08
-2.463e-11
-3.4612e-09
2.40708e-08
-2.23021e-11
-2.1168e-09
2.51989e-08
-1.69061e-11
-1.13193e-09
2.54313e-08
-1.2319e-11
-2.33668e-10
2.52648e-08
-9.17002e-12
1.67055e-10
2.48543e-08
-7.90579e-12
4.11863e-10
2.40854e-08
-9.55512e-12
7.68796e-10
2.274e-08
-1.51132e-11
1.34173e-09
2.05362e-08
-2.52543e-11
2.1948e-09
1.71585e-08
-4.02316e-11
3.36238e-09
1.23877e-08
-5.97347e-11
4.7482e-09
6.20185e-09
-9.02309e-11
6.1524e-09
-1.08695e-10
6.16326e-09
1.85151e-08
-2.01063e-11
-1.852e-08
2.19704e-08
-3.16809e-11
-3.4661e-09
2.40823e-08
-3.09127e-11
-2.11928e-09
2.52107e-08
-2.5921e-11
-1.13258e-09
2.54426e-08
-2.10945e-11
-2.33459e-10
2.52751e-08
-1.76878e-11
1.68212e-10
2.48627e-08
-1.61658e-11
4.14058e-10
2.40914e-08
-1.69813e-11
7.71487e-10
2.27437e-08
-2.07052e-11
1.34416e-09
2.05382e-08
-2.75956e-11
2.19601e-09
1.71601e-08
-3.78167e-11
3.36205e-09
1.23894e-08
-5.10368e-11
4.74698e-09
6.20263e-09
-7.0973e-11
6.15206e-09
-7.55772e-11
6.16281e-09
1.85179e-08
-2.36942e-11
-1.85243e-08
2.19764e-08
-3.61338e-11
-3.47164e-09
2.40894e-08
-3.61944e-11
-2.12349e-09
2.52169e-08
-3.13763e-11
-1.13513e-09
2.54475e-08
-2.65507e-11
-2.35205e-10
2.52784e-08
-2.34348e-11
1.6723e-10
2.48641e-08
-2.21332e-11
4.1383e-10
2.40907e-08
-2.23101e-11
7.71633e-10
2.2741e-08
-2.41684e-11
1.3442e-09
2.05339e-08
-2.78147e-11
2.19563e-09
1.71546e-08
-3.36127e-11
3.36148e-09
1.23833e-08
-4.1547e-11
4.7469e-09
6.19733e-09
-5.28189e-11
6.1524e-09
-4.63153e-11
6.16138e-09
1.85186e-08
-2.52999e-11
-1.85269e-08
2.19791e-08
-3.63544e-11
-3.47752e-09
2.40916e-08
-3.57512e-11
-2.12859e-09
2.52171e-08
-3.05564e-11
-1.13913e-09
2.54453e-08
-2.62641e-11
-2.38386e-10
2.52742e-08
-2.45327e-11
1.64761e-10
2.48582e-08
-2.42684e-11
4.11853e-10
2.40833e-08
-2.41863e-11
7.69935e-10
2.27319e-08
-2.44427e-11
1.34277e-09
2.05231e-08
-2.54287e-11
2.19499e-09
1.71416e-08
-2.80493e-11
3.36238e-09
1.23687e-08
-3.29264e-11
4.74944e-09
6.18585e-09
-3.93811e-11
6.1541e-09
-2.63828e-11
6.15928e-09
1.85175e-08
-2.56479e-11
-1.85269e-08
2.19784e-08
-3.25448e-11
-3.48183e-09
2.40892e-08
-2.92794e-11
-2.13268e-09
2.52119e-08
-2.29739e-11
-1.14288e-09
2.54374e-08
-2.00666e-11
-2.41532e-10
2.52647e-08
-2.08533e-11
1.61784e-10
2.48476e-08
-2.18593e-11
4.08498e-10
2.40717e-08
-2.15356e-11
7.66507e-10
2.2719e-08
-2.087e-11
1.34029e-09
2.0508e-08
-2.07495e-11
2.19494e-09
1.71234e-08
-2.2695e-11
3.36582e-09
1.23485e-08
-2.79071e-11
4.75523e-09
6.17087e-09
-3.4567e-11
6.15752e-09
-1.89798e-11
6.15691e-09
1.85155e-08
-2.72526e-11
-1.85238e-08
2.19754e-08
-2.94203e-11
-3.47991e-09
2.40834e-08
-2.20169e-11
-2.13054e-09
2.52034e-08
-1.53103e-11
-1.14023e-09
2.5428e-08
-1.60784e-11
-2.38243e-10
2.52554e-08
-1.88352e-11
1.63192e-10
2.48385e-08
-1.76595e-11
4.06467e-10
2.40621e-08
-1.45167e-11
7.62489e-10
2.27081e-08
-1.31783e-11
1.33734e-09
2.04945e-08
-1.4465e-11
2.19596e-09
1.7106e-08
-1.93461e-11
3.37178e-09
1.2329e-08
-2.87911e-11
4.76326e-09
6.15719e-09
-3.93235e-11
6.16162e-09
-2.3093e-11
6.15479e-09
1.85157e-08
-3.45076e-11
-1.8518e-08
2.19749e-08
-3.15925e-11
-3.47374e-09
2.40763e-08
-1.29365e-11
-2.12552e-09
2.51903e-08
-6.88601e-12
-1.13488e-09
2.5414e-08
-1.87592e-11
-2.30714e-10
2.52429e-08
-2.3598e-11
1.68388e-10
2.48266e-08
-1.4078e-11
4.06015e-10
2.40501e-08
-4.20148e-12
7.58851e-10
2.26951e-08
-2.95153e-12
1.33548e-09
2.04786e-08
-9.3274e-12
2.19982e-09
1.70862e-08
-2.14005e-11
3.38128e-09
1.23086e-08
-3.82164e-11
4.77285e-09
6.14555e-09
-5.46399e-11
6.16352e-09
-3.59053e-11
6.15201e-09
1.85181e-08
-3.60409e-11
-1.85261e-08
2.19794e-08
-2.60468e-11
-3.48358e-09
2.40743e-08
1.76032e-12
-2.12467e-09
2.51884e-08
-4.44522e-12
-1.12925e-09
2.54142e-08
-3.13859e-11
-2.23318e-10
2.52409e-08
-3.20684e-11
1.73502e-10
2.48208e-08
-1.07715e-11
4.09373e-10
2.40417e-08
2.26554e-12
7.64362e-10
2.26854e-08
-2.2452e-12
1.34574e-09
2.04668e-08
-1.84867e-11
2.21588e-09
1.70715e-08
-4.01288e-11
3.40086e-09
1.22954e-08
-6.53371e-11
4.78871e-09
6.14665e-09
-8.46809e-11
6.16422e-09
-4.26733e-11
6.14713e-09
1.85469e-08
-6.26537e-11
-1.85301e-08
2.19809e-08
1.11169e-11
-3.48748e-09
2.4058e-08
1.56187e-11
-2.10576e-09
2.52014e-08
-4.967e-11
-1.11067e-09
2.54469e-08
-7.10881e-11
-2.16022e-10
2.5266e-08
-3.24079e-11
1.72755e-10
2.48328e-08
-1.71047e-12
4.16142e-10
2.40458e-08
-7.13676e-12
7.87676e-10
2.26863e-08
-3.1212e-11
1.37835e-09
2.04676e-08
-5.78353e-11
2.24634e-09
1.70746e-08
-8.26129e-11
3.42253e-09
1.23001e-08
-1.05566e-10
4.80124e-09
6.14546e-09
-1.07879e-10
6.16408e-09
-3.85607e-11
6.13557e-09
1.8436e-08
-1.8503e-08
2.20564e-08
-3.61511e-09
2.41316e-08
-2.06476e-09
2.52274e-08
-1.1499e-09
2.54521e-08
-2.99543e-10
2.52721e-08
1.44343e-10
2.48423e-08
4.24922e-10
2.40452e-08
7.86401e-10
2.26684e-08
1.34157e-09
2.044e-08
2.16608e-09
1.70463e-08
3.30619e-09
1.22596e-08
4.67613e-09
6.10619e-09
6.04072e-09
6.06536e-09
5.62746e-09
-1.21505e-09
-2.16149e-08
8.95989e-09
-8.58401e-10
-3.41033e-09
1.01934e-08
-5.8678e-10
3.45913e-10
1.08954e-08
-2.71703e-10
1.23958e-09
1.09746e-08
1.07056e-10
1.90969e-09
1.03938e-08
4.43955e-10
2.35597e-09
9.1648e-09
8.09067e-10
2.67076e-09
7.28585e-09
1.20498e-09
3.02021e-09
4.82409e-09
1.48244e-09
3.50849e-09
1.96229e-09
1.55849e-09
4.02381e-09
-7.39987e-10
1.04266e-09
4.59309e-09
-2.39741e-09
-5.01891e-10
5.34607e-09
-2.17295e-09
-2.70417e-09
5.94874e-09
-4.02989e-09
4.83541e-09
5.60563e-09
-1.30369e-09
-2.46508e-08
8.60705e-09
-1.34582e-09
-6.44047e-09
9.84564e-09
-1.18677e-09
-2.59509e-09
1.12674e-08
-1.03124e-09
-1.15543e-09
1.27218e-08
-7.92069e-10
9.83676e-11
1.37838e-08
-4.82584e-10
1.07758e-09
1.43608e-08
-1.01472e-10
1.93051e-09
1.43714e-08
3.58305e-10
2.8452e-09
1.3685e-08
8.00718e-10
3.83659e-09
1.22626e-08
1.05494e-09
4.85245e-09
1.00457e-08
7.78787e-10
5.83983e-09
6.84294e-09
-2.88262e-10
6.79926e-09
3.04969e-09
-2.41652e-09
8.07114e-09
-4.06063e-09
7.64468e-09
5.66829e-09
-1.34828e-09
-2.39923e-08
8.33713e-09
-1.58316e-09
-5.92569e-09
9.3461e-09
-1.44596e-09
-2.8453e-09
1.05234e-08
-1.28432e-09
-1.86572e-09
1.17701e-08
-1.13684e-09
-8.15843e-10
1.28116e-08
-9.73719e-10
4.50118e-11
1.3603e-08
-7.7777e-10
8.30712e-10
1.41252e-08
-5.15552e-10
1.72513e-09
1.42478e-08
-1.98971e-10
2.77694e-09
1.37434e-08
9.2542e-11
3.96461e-09
1.22891e-08
1.43758e-10
5.2731e-09
9.55465e-09
-3.04534e-10
6.73133e-09
5.07059e-09
-1.48601e-09
8.55859e-09
-2.37779e-09
8.48851e-09
5.70837e-09
-1.29415e-09
-2.39969e-08
8.30803e-09
-1.6227e-09
-5.84475e-09
9.24944e-09
-1.51175e-09
-2.85408e-09
1.03468e-08
-1.33922e-09
-1.98278e-09
1.14691e-08
-1.2155e-09
-1.06089e-09
1.23613e-08
-1.11314e-09
-3.61769e-10
1.30014e-08
-9.97163e-10
2.39649e-10
1.33715e-08
-8.33162e-10
9.8103e-10
1.33647e-08
-6.0372e-10
1.97357e-09
1.27864e-08
-3.46005e-10
3.26215e-09
1.1357e-08
-1.95115e-10
4.86539e-09
8.72757e-09
-3.47044e-10
6.78713e-09
4.49297e-09
-9.61241e-10
9.02733e-09
-1.41169e-09
8.93931e-09
5.75419e-09
-1.18672e-09
-2.4158e-08
8.31669e-09
-1.52688e-09
-5.97489e-09
9.1933e-09
-1.44335e-09
-2.97431e-09
1.02259e-08
-1.28116e-09
-2.12583e-09
1.12752e-08
-1.16505e-09
-1.24685e-09
1.20768e-08
-1.07877e-09
-6.11352e-10
1.26292e-08
-9.84808e-10
-1.10342e-10
1.29324e-08
-8.58558e-10
5.19233e-10
1.28733e-08
-6.80377e-10
1.46509e-09
1.22308e-08
-4.75067e-10
2.85397e-09
1.07205e-08
-3.37552e-10
4.73187e-09
8.04889e-09
-4.05419e-10
7.00402e-09
4.00023e-09
-7.77925e-10
9.43825e-09
-1.02684e-09
9.23511e-09
5.78773e-09
-1.06567e-09
-2.42457e-08
8.34328e-09
-1.37297e-09
-6.06477e-09
9.1927e-09
-1.30323e-09
-3.05852e-09
1.01932e-08
-1.15115e-09
-2.21798e-09
1.1209e-08
-1.03734e-09
-1.35713e-09
1.19739e-08
-9.52796e-10
-7.51487e-10
1.24935e-08
-8.63582e-10
-2.98599e-10
1.27848e-08
-7.5485e-10
2.70835e-10
1.27283e-08
-6.19667e-10
1.19605e-09
1.20766e-08
-4.81409e-10
2.65721e-09
1.05193e-08
-4.0256e-10
4.71014e-09
7.78831e-09
-4.67546e-10
7.18127e-09
3.79161e-09
-7.43749e-10
9.69724e-09
-9.13475e-10
9.42801e-09
5.80061e-09
-9.36813e-10
-2.42602e-08
8.36921e-09
-1.20485e-09
-6.08525e-09
9.22078e-09
-1.14057e-09
-3.0852e-09
1.02181e-08
-9.93371e-10
-2.2533e-09
1.12283e-08
-8.76983e-10
-1.4052e-09
1.19874e-08
-7.89153e-10
-8.19153e-10
1.25051e-08
-7.01841e-10
-3.91081e-10
1.28068e-08
-6.09108e-10
1.51804e-10
1.27682e-08
-5.14135e-10
1.06742e-09
1.2121e-08
-4.40286e-10
2.56397e-09
1.0535e-08
-4.2537e-10
4.70476e-09
7.75448e-09
-5.14431e-10
7.28088e-09
3.7519e-09
-7.58757e-10
9.84673e-09
-8.91694e-10
9.56845e-09
5.807e-09
-8.00349e-10
-2.426e-08
8.39211e-09
-1.03375e-09
-6.08951e-09
9.25496e-09
-9.72533e-10
-3.09448e-09
1.02614e-08
-8.28409e-10
-2.26581e-09
1.12807e-08
-7.09192e-10
-1.42285e-09
1.205e-08
-6.17467e-10
-8.46247e-10
1.25799e-08
-5.32857e-10
-4.29497e-10
1.28973e-08
-4.56736e-10
1.0156e-10
1.28749e-08
-3.9778e-10
1.01074e-09
1.22329e-08
-3.7716e-10
2.51799e-09
1.06271e-08
-4.1657e-10
4.69909e-09
7.80688e-09
-5.35609e-10
7.33287e-09
3.77171e-09
-7.74996e-10
9.93972e-09
-8.92241e-10
9.67525e-09