/*--------------------------------*- C++ -*----------------------------------*\
| =========                 |                                                 |
| \\      /  F ield         | OpenFOAM: The Open Source CFD Toolbox           |
|  \\    /   O peration     | Version:  5.0                                   |
|   \\  /    A nd           | Web:      www.OpenFOAM.org                      |
|    \\/     M anipulation  |                                                 |
\*---------------------------------------------------------------------------*/
FoamFile
{
    version     2.0;
    format      ascii;
    class       surfaceScalarField;
    location    "2";
    object      phi;
}
// * * * * * * * * * * * * * * * * * * * * * * * * * * * * * * * * * * * * * //

dimensions      [0 3 -1 0 0 0 0];

internalField   nonuniform List<scalar> 
85
(
0.000100749
-2.52723e-19
0.000100749
-9.46165e-20
0.000100749
-2.04241e-21
0.000100749
-1.13048e-19
5.80999e-20
0.000100749
-2.02154e-19
0.000100749
-2.84435e-19
0.000100749
1.59136e-19
0.000100749
3.49716e-20
-3.63418e-20
0.000100749
-2.47417e-19
0.000100749
-4.42734e-19
0.000100749
-4.38344e-20
0.000100749
8.74166e-20
1.43841e-20
0.000100749
-2.57389e-19
0.000100749
-4.79647e-19
0.000100749
-2.02775e-19
0.000100749
2.08254e-19
1.50188e-19
0.000100749
-4.46213e-19
0.000100749
-6.06676e-19
0.000100749
-1.5964e-19
0.000100749
2.16931e-19
1.58997e-19
0.000100749
-3.62572e-19
0.000100749
-6.54582e-19
0.000100749
-2.30681e-19
0.000100749
2.63156e-19
3.32485e-19
0.000100749
-5.05771e-19
0.000100749
-8.01445e-19
0.000100749
-3.06867e-19
0.000100749
2.72955e-19
3.03413e-19
0.000100749
-5.3042e-19
0.000100749
-8.87659e-19
0.000100749
-3.64016e-19
0.000100749
4.01119e-19
3.48763e-19
0.000100749
-4.70082e-19
0.000100749
-9.0063e-19
0.000100749
-2.6005e-19
0.000100749
3.12444e-19
2.17268e-19
0.000100749
0.000100749
0.000100749
0.000100749
)
;

boundaryField
{
    top
    {
        type            calculated;
        value           nonuniform List<scalar> 5(-5.96077e-19 -7.8943e-19 -3.65477e-19 3.33198e-19 9.08831e-20);
    }
    bottom
    {
        type            symmetryPlane;
        value           uniform 0;
    }
    inlet
    {
        type            calculated;
        value           nonuniform 0();
    }
    outlet
    {
        type            calculated;
        value           nonuniform List<scalar> 10(0.000100749 0.000100749 0.000100749 0.000100749 0.000100749 0.000100749 0.000100749 0.000100749 0.000100749 0.000100749);
    }
    frontAndBack
    {
        type            empty;
        value           nonuniform 0();
    }
    procBoundary1to0
    {
        type            processor;
        value           nonuniform List<scalar> 10(-0.000100749 -0.000100749 -0.000100749 -0.000100749 -0.000100749 -0.000100749 -0.000100749 -0.000100749 -0.000100749 -0.000100749);
    }
}


// ************************************************************************* //
