/*--------------------------------*- C++ -*----------------------------------*\
| =========                 |                                                 |
| \\      /  F ield         | OpenFOAM: The Open Source CFD Toolbox           |
|  \\    /   O peration     | Version:  5.0                                   |
|   \\  /    A nd           | Web:      www.OpenFOAM.org                      |
|    \\/     M anipulation  |                                                 |
\*---------------------------------------------------------------------------*/
FoamFile
{
    version     2.0;
    format      ascii;
    class       volScalarField;
    location    "2";
    object      shearRate;
}
// * * * * * * * * * * * * * * * * * * * * * * * * * * * * * * * * * * * * * //

dimensions      [0 0 -1 0 0 0 0];

internalField   nonuniform List<scalar> 
50
(
2.9888e-14
3.02498e-14
4.33808e-14
2.11937e-14
2.31978e-14
2.51806e-14
2.95808e-14
4.36179e-14
3.16525e-14
2.76007e-15
1.40952e-14
1.59086e-14
8.65684e-15
2.96243e-14
2.4639e-14
2.6136e-14
2.65229e-14
4.53452e-14
3.12694e-14
1.25224e-14
4.54536e-14
2.63773e-14
6.60351e-14
2.84789e-14
2.29436e-14
4.50435e-14
1.0489e-14
4.39502e-14
2.64875e-14
2.27134e-14
2.58094e-14
2.3028e-14
7.91408e-15
4.52615e-14
6.56931e-14
2.56224e-14
8.02567e-15
2.39786e-14
2.38418e-14
2.66002e-14
1.29575e-14
6.48136e-15
2.34746e-14
7.11572e-15
4.37485e-14
2.45665e-14
2.28517e-14
1.20725e-14
4.33946e-14
4.35359e-14
)
;

boundaryField
{
    top
    {
        type            zeroGradient;
    }
    bottom
    {
        type            symmetryPlane;
    }
    inlet
    {
        type            zeroGradient;
    }
    outlet
    {
        type            zeroGradient;
    }
    frontAndBack
    {
        type            empty;
    }
    procBoundary1to0
    {
        type            processor;
        value           nonuniform List<scalar> 10(2.28398e-14 2.22564e-14 4.51681e-14 2.19594e-14 2.83259e-15 2.22502e-14 6.46758e-15 5.70481e-15 2.28498e-14 2.30153e-14);
    }
}


// ************************************************************************* //
