/*--------------------------------*- C++ -*----------------------------------*\
| =========                 |                                                 |
| \\      /  F ield         | OpenFOAM: The Open Source CFD Toolbox           |
|  \\    /   O peration     | Version:  5.0                                   |
|   \\  /    A nd           | Web:      www.OpenFOAM.org                      |
|    \\/     M anipulation  |                                                 |
\*---------------------------------------------------------------------------*/
FoamFile
{
    version     2.0;
    format      ascii;
    class       volVectorField;
    location    "2";
    object      U;
}
// * * * * * * * * * * * * * * * * * * * * * * * * * * * * * * * * * * * * * //

dimensions      [0 1 -1 0 0 0 0];

internalField   nonuniform List<vector> 
25
(
(1 -7.41426e-09 6.46481e-23)
(1 -8.98905e-09 3.23242e-23)
(1 -1.10836e-08 -3.2324e-23)
(1 -1.92379e-08 -3.07464e-28)
(1 -8.48849e-09 3.26282e-23)
(0.92 -2.79002e-08 -2.79792e-23)
(0.92 -2.37615e-08 2.72792e-28)
(0.92 -3.40481e-08 5.59593e-23)
(0.92 -6.18107e-08 -5.44506e-28)
(0.92 -3.07665e-08 -5.64504e-23)
(0.76 -4.57177e-08 2.79789e-23)
(0.76 -2.57795e-08 2.79792e-23)
(0.76 -4.4614e-08 2.79786e-23)
(0.76 -8.97669e-08 9.16757e-28)
(0.76 -4.92503e-08 -2.82626e-23)
(0.52 -5.02981e-08 5.59581e-23)
(0.52 -1.9957e-08 2.79792e-23)
(0.52 -4.0252e-08 -4.30821e-28)
(0.52 -9.39391e-08 -2.79795e-23)
(0.52 -5.17606e-08 -6.46065e-28)
(0.2 -1.99842e-08 3.98788e-23)
(0.2 -6.41736e-09 1.99394e-23)
(0.2 -1.45447e-08 9.66687e-29)
(0.2 -3.65711e-08 0)
(0.2 -2.00328e-08 0)
)
;

boundaryField
{
    top
    {
        type            fixedValue;
        value           uniform (0 0 0);
    }
    bottom
    {
        type            symmetryPlane;
    }
    inlet
    {
        type            pressureInletVelocity;
        value           nonuniform 0();
    }
    outlet
    {
        type            inletOutlet;
        inletValue      uniform (1 0 0);
        value           nonuniform List<vector> 5((1 -8.48849e-09 3.26282e-23) (0.92 -3.07665e-08 -5.64504e-23) (0.76 -4.92503e-08 -2.82626e-23) (0.52 -5.17606e-08 -6.46065e-28) (0.2 -2.00328e-08 0));
    }
    frontAndBack
    {
        type            empty;
    }
    procBoundary1to0
    {
        type            processor;
        value           nonuniform List<vector> 5((1 -2.31989e-10 -1.35847e-29) (0.92 -4.70129e-10 -2.79794e-23) (0.76 8.55957e-10 -5.59588e-23) (0.52 9.1574e-10 5.59588e-23) (0.2 3.21349e-10 3.98786e-23));
    }
}


// ************************************************************************* //
