/*--------------------------------*- C++ -*----------------------------------*\
| =========                 |                                                 |
| \\      /  F ield         | OpenFOAM: The Open Source CFD Toolbox           |
|  \\    /   O peration     | Version:  5.0                                   |
|   \\  /    A nd           | Web:      www.OpenFOAM.org                      |
|    \\/     M anipulation  |                                                 |
\*---------------------------------------------------------------------------*/
FoamFile
{
    version     2.0;
    format      ascii;
    class       volVectorField;
    location    "2";
    object      U;
}
// * * * * * * * * * * * * * * * * * * * * * * * * * * * * * * * * * * * * * //

dimensions      [0 1 -1 0 0 0 0];

internalField   nonuniform List<vector> 
50
(
(1.00749 -1.30677e-16 6.2952e-37)
(1.00749 -9.93668e-17 1.77142e-36)
(1.00749 -2.47129e-17 -3.06137e-37)
(1.00749 -5.25378e-17 -2.87452e-36)
(1.00749 -2.99654e-17 -8.73406e-37)
(1.00749 -2.26985e-16 1.55346e-36)
(1.00749 -2.01844e-16 3.63383e-36)
(1.00749 1.09595e-16 -3.11783e-36)
(1.00749 -2.74931e-17 -1.81692e-36)
(1.00749 5.25051e-18 -2.77305e-36)
(1.00749 -2.29631e-16 2.63453e-37)
(1.00749 -3.5941e-16 -5.16367e-36)
(1.00749 5.29643e-17 7.52748e-36)
(1.00749 5.5357e-17 -1.07966e-51)
(1.00749 -3.12505e-17 -4.75935e-37)
(1.00749 -2.63164e-16 5.19638e-37)
(1.00749 -4.46705e-16 -5.16367e-36)
(1.00749 -9.96681e-17 -1.81692e-36)
(1.00749 1.61021e-16 -2.6527e-37)
(1.00749 1.00444e-16 1.82118e-36)
(1.00749 -3.35613e-16 5.16004e-37)
(1.00749 -5.13226e-16 2.85256e-37)
(1.00749 -1.72539e-16 1.81692e-36)
(1.00749 2.25749e-16 0)
(1.00749 1.72314e-16 0)
(1.00749 -3.98966e-16 8.41669e-49)
(1.00749 -6.43134e-16 7.26766e-36)
(1.00749 -1.95183e-16 8.95613e-49)
(1.00749 2.53478e-16 0)
(1.00749 2.69048e-16 0)
(1.00749 -4.52018e-16 -2.06947e-36)
(1.00749 -7.29237e-16 6.97877e-36)
(1.00749 -2.64133e-16 5.41441e-37)
(1.00749 2.67875e-16 5.45075e-37)
(1.00749 3.22927e-16 0)
(1.00749 -5.36772e-16 -3.63383e-36)
(1.00749 -8.28439e-16 -4.21524e-36)
(1.00749 -3.51737e-16 2.72537e-37)
(1.00749 3.22431e-16 -1.54074e-36)
(1.00749 3.04021e-16 4.56509e-37)
(1.00749 -5.22818e-16 -1.81692e-36)
(1.00749 -8.84768e-16 -3.63383e-36)
(1.00749 -3.33246e-16 -1.81692e-36)
(1.00749 3.43912e-16 -2.79805e-37)
(1.00749 2.44443e-16 5.91154e-36)
(1.00749 -5.42826e-16 -1.84224e-36)
(1.00749 -8.4226e-16 -1.10053e-36)
(1.00749 -3.12188e-16 -6.87832e-36)
(1.00749 3.28513e-16 1.58889e-36)
(1.00749 1.49179e-16 3.98876e-36)
)
;

boundaryField
{
    top
    {
        type            zeroGradient;
    }
    bottom
    {
        type            symmetryPlane;
    }
    inlet
    {
        type            pressureInletVelocity;
        value           nonuniform 0();
    }
    outlet
    {
        type            inletOutlet;
        inletValue      uniform (1 0 0);
        value           nonuniform List<vector> 10((1.00749 -2.99654e-17 -8.73406e-37) (1.00749 5.25051e-18 -2.77305e-36) (1.00749 -3.12505e-17 -4.75935e-37) (1.00749 1.00444e-16 1.82118e-36) (1.00749 1.72314e-16 0) (1.00749 2.69048e-16 0) (1.00749 3.22927e-16 0) (1.00749 3.04021e-16 4.56509e-37) (1.00749 2.44443e-16 5.91154e-36) (1.00749 1.49179e-16 3.98876e-36));
    }
    frontAndBack
    {
        type            empty;
    }
    procBoundary1to0
    {
        type            processor;
        value           nonuniform List<vector> 10((1.00749 -7.01217e-17 9.15383e-50) (1.00749 -1.30717e-16 -2.05311e-37) (1.00749 -1.59144e-16 -4.14257e-37) (1.00749 -1.36587e-16 4.10623e-37) (1.00749 -8.39659e-17 2.22754e-36) (1.00749 -1.40705e-16 -2.01678e-37) (1.00749 -2.00544e-16 -1.81692e-36) (1.00749 -1.26814e-16 5.99582e-37) (1.00749 -1.07476e-16 -7.26766e-36) (1.00749 -1.5443e-16 -4.58555e-36));
    }
}


// ************************************************************************* //
